/*--------------------------------*- C++ -*----------------------------------*\
  =========                 |
  \\      /  F ield         | OpenFOAM: The Open Source CFD Toolbox
   \\    /   O peration     | Website:  https://openfoam.org
    \\  /    A nd           | Version:  13
     \\/     M anipulation  |
\*---------------------------------------------------------------------------*/
FoamFile
{
    format      ascii;
    class       volVectorField;
    location    "0";
    object      vorticity;
}
// * * * * * * * * * * * * * * * * * * * * * * * * * * * * * * * * * * * * * //

dimensions      [0 0 -1 0 0 0 0];

internalField   nonuniform List<vector> 
135432
(
(-5.48287e-18 -1.56394e-19 0)
(7.86503e-20 2.49444e-18 0)
(1.68222e-17 -2.22025e-17 0)
(-2.78383e-17 1.6863e-17 0)
(-1.66741e-17 1.35421e-17 0)
(1.11616e-17 -2.65028e-17 0)
(2.23004e-17 1.62151e-17 0)
(-1.66702e-17 -1.65955e-18 0)
(5.60078e-18 1.08571e-17 0)
(1.11689e-17 5.6012e-18 0)
(5.60151e-18 5.60233e-18 0)
(5.60179e-18 -5.53385e-18 0)
(2.23092e-17 -5.5351e-18 0)
(1.11735e-17 1.11735e-17 0)
(1.11735e-17 1.11735e-17 0)
(1.11735e-17 1.11735e-17 0)
(1.11735e-17 1.11735e-17 0)
(1.11735e-17 1.11735e-17 0)
(1.11735e-17 1.11735e-17 0)
(5.60458e-18 1.11735e-17 0)
(-3.89469e-17 1.11735e-17 0)
(1.11735e-17 1.11735e-17 0)
(1.11735e-17 1.11735e-17 0)
(1.11735e-17 1.11735e-17 0)
(1.11735e-17 1.11735e-17 0)
(1.11735e-17 1.11735e-17 0)
(1.11735e-17 1.11735e-17 0)
(2.23092e-17 1.11738e-17 0)
(5.60179e-18 -5.53385e-18 0)
(5.60151e-18 -5.53436e-18 0)
(1.11689e-17 5.6012e-18 0)
(5.60078e-18 -1.079e-17 0)
(-1.66702e-17 7.29536e-18 0)
(2.23004e-17 6.12033e-18 0)
(1.11616e-17 2.65707e-17 0)
(5.58953e-18 -1.34605e-17 0)
(-5.54067e-18 -5.54e-18 0)
(1.68222e-17 1.68539e-17 0)
(-3.35393e-17 3.30553e-18 0)
(1.68176e-19 1.56394e-19 0)
(9.79832e-19 3.9305e-17 0)
(-4.2655e-17 1.08885e-18 0)
(-1.80966e-17 -1.78211e-17 0)
(-5.35121e-18 9.84197e-18 0)
(-1.84142e-17 -5.14702e-18 0)
(1.6703e-17 -5.19929e-19 0)
(-3.15143e-20 -1.34176e-17 0)
(-1.11677e-17 -1.24821e-17 0)
(1.70957e-17 8.22708e-18 0)
(-5.60421e-18 -5.53385e-18 0)
(5.5351e-18 -5.5351e-18 0)
(-1.11735e-17 1.11735e-17 0)
(-1.11735e-17 1.11735e-17 0)
(-1.11735e-17 1.11735e-17 0)
(-1.11735e-17 1.11735e-17 0)
(-1.11735e-17 1.11735e-17 0)
(-1.11735e-17 1.11735e-17 0)
(-1.11735e-17 1.11735e-17 0)
(-1.11735e-17 1.11735e-17 0)
(-2.23114e-17 1.11735e-17 0)
(2.7809e-17 1.11735e-17 0)
(-1.11735e-17 1.11735e-17 0)
(-1.11735e-17 1.11735e-17 0)
(-1.11735e-17 1.11735e-17 0)
(-1.11735e-17 1.11735e-17 0)
(-1.11735e-17 1.11735e-17 0)
(-1.11735e-17 1.11735e-17 0)
(-1.11735e-17 1.11735e-17 0)
(-1.11735e-17 1.11735e-17 0)
(5.5351e-18 1.11738e-17 0)
(-5.60421e-18 -5.53385e-18 0)
(1.70957e-17 -2.48649e-17 0)
(-1.11677e-17 2.92506e-17 0)
(-3.15143e-20 2.35105e-18 0)
(1.67035e-17 -1.61118e-17 0)
(-1.84184e-17 -5.98521e-18 0)
(-5.3406e-18 -1.52913e-17 0)
(-1.81047e-17 2.91005e-17 0)
(1.32174e-17 -1.76825e-17 0)
(-4.65718e-18 -1.67789e-17 0)
(2.02938e-17 -1.07336e-19 0)
(6.59615e-19 -1.48513e-20 0)
(1.3913e-17 -3.69513e-18 0)
(1.66403e-17 -1.68701e-17 0)
(7.57225e-19 -2.56639e-18 0)
(-1.11608e-17 -1.16552e-17 0)
(5.53541e-18 -7.26792e-19 0)
(-2.16855e-17 -2.27426e-17 0)
(5.53502e-18 -5.53502e-18 0)
(-1.11735e-17 1.11735e-17 0)
(-1.11735e-17 1.11735e-17 0)
(-1.11735e-17 1.11735e-17 0)
(-1.11735e-17 1.11735e-17 0)
(-1.11735e-17 1.11735e-17 0)
(-1.11735e-17 1.11735e-17 0)
(-1.11735e-17 1.11735e-17 0)
(-1.11747e-17 1.11747e-17 0)
(-1.11735e-17 3.67587e-20 0)
(-1.11735e-17 3.67587e-20 0)
(5.25793e-17 3.67587e-20 0)
(-4.70856e-17 3.67587e-20 0)
(-1.11735e-17 3.67587e-20 0)
(-1.11735e-17 3.67587e-20 0)
(-1.11747e-17 3.57855e-20 0)
(-1.11735e-17 1.11735e-17 0)
(-1.11735e-17 1.11735e-17 0)
(-1.11735e-17 1.11735e-17 0)
(-1.11735e-17 1.11735e-17 0)
(-1.11735e-17 1.11735e-17 0)
(-1.11735e-17 1.11735e-17 0)
(-1.11735e-17 1.11735e-17 0)
(5.53502e-18 3.57813e-20 0)
(-2.16855e-17 2.28106e-17 0)
(5.53541e-18 -4.77683e-18 0)
(-1.11608e-17 -1.05474e-17 0)
(7.5141e-19 -1.96279e-17 0)
(-5.62635e-18 1.69354e-17 0)
(1.38694e-17 -7.34579e-18 0)
(2.29918e-17 1.13146e-17 0)
(-7.80772e-18 1.07336e-19 0)
(2.99145e-18 -1.1348e-17 0)
(8.55037e-18 1.17713e-17 0)
(1.26686e-17 -1.35473e-17 0)
(-1.15714e-17 5.10492e-18 0)
(-1.93743e-17 -1.70508e-17 0)
(-2.27178e-17 -2.34071e-18 0)
(2.04686e-17 -1.22519e-17 0)
(6.58162e-18 -2.75726e-19 0)
(-1.11735e-17 1.11735e-17 0)
(-1.11735e-17 1.11735e-17 0)
(-1.11735e-17 1.11735e-17 0)
(-1.11735e-17 1.11735e-17 0)
(-1.11735e-17 1.11735e-17 0)
(-1.11747e-17 1.11747e-17 0)
(-1.11735e-17 3.67587e-20 0)
(-1.11735e-17 3.67587e-20 0)
(-3.56009e-20 3.56009e-20 0)
(1.11022e-17 -1.11022e-17 0)
(1.11022e-17 -1.11022e-17 0)
(-3.90282e-17 -1.11022e-17 0)
(3.33824e-17 -1.11022e-17 0)
(1.11022e-17 -1.11022e-17 0)
(1.11022e-17 -1.11022e-17 0)
(-3.56009e-20 -1.1101e-17 0)
(-1.11735e-17 3.67587e-20 0)
(-1.11735e-17 3.67587e-20 0)
(-1.11747e-17 3.57855e-20 0)
(-1.11735e-17 1.11735e-17 0)
(-1.11735e-17 1.11735e-17 0)
(-1.11735e-17 1.11735e-17 0)
(-1.11735e-17 1.11735e-17 0)
(-1.11735e-17 1.11735e-17 0)
(6.58162e-18 -5.21788e-18 0)
(2.04659e-17 1.18494e-18 0)
(-2.27173e-17 -1.42909e-17 0)
(-1.93851e-17 2.26389e-17 0)
(1.62291e-17 -2.17331e-17 0)
(1.26686e-17 2.5594e-18 0)
(-1.93535e-17 -2.27803e-17 0)
(2.98596e-18 3.38338e-17 0)
(-3.91315e-18 1.67588e-17 0)
(3.28359e-17 -1.07858e-18 0)
(-2.7177e-17 -2.53125e-17 0)
(3.41348e-17 1.37165e-17 0)
(1.87617e-17 -3.14697e-17 0)
(9.65485e-18 -7.71427e-18 0)
(-7.79853e-18 3.06245e-17 0)
(-1.11724e-17 9.90053e-18 0)
(-1.11735e-17 1.11735e-17 0)
(-1.11735e-17 1.11735e-17 0)
(-1.11735e-17 1.11735e-17 0)
(-1.11747e-17 1.11747e-17 0)
(-1.11735e-17 3.67587e-20 0)
(-3.56009e-20 3.56009e-20 0)
(1.11022e-17 -1.11022e-17 0)
(1.11022e-17 -1.11022e-17 0)
(1.11022e-17 -1.11022e-17 0)
(1.11022e-17 -1.11022e-17 0)
(1.11022e-17 -1.11022e-17 0)
(-3.78763e-20 -1.11022e-17 0)
(-5.60793e-18 -1.11022e-17 0)
(1.11022e-17 -1.11022e-17 0)
(1.11022e-17 -1.11022e-17 0)
(1.11022e-17 -1.11022e-17 0)
(1.11022e-17 -1.11022e-17 0)
(1.11022e-17 -1.11022e-17 0)
(-3.56009e-20 -1.1101e-17 0)
(-1.11735e-17 3.67587e-20 0)
(-1.11747e-17 3.57855e-20 0)
(-1.11735e-17 1.11735e-17 0)
(-1.11735e-17 1.11735e-17 0)
(-1.11735e-17 1.11735e-17 0)
(-1.11724e-17 -4.26101e-18 0)
(-7.80125e-18 -1.94178e-17 0)
(9.65485e-18 2.21732e-18 0)
(1.87617e-17 2.5966e-17 0)
(-1.03713e-17 3.07164e-18 0)
(-2.71634e-17 3.09253e-17 0)
(3.2825e-17 -1.00722e-17 0)
(-3.9104e-18 5.72763e-18 0)
(-6.00341e-18 1.67575e-17 0)
(1.94077e-18 -3.39623e-19 0)
(-1.76862e-17 4.92726e-18 0)
(-3.51075e-18 -1.70175e-17 0)
(-2.62837e-17 -2.12069e-18 0)
(1.11817e-18 -1.38474e-17 0)
(-1.11708e-17 1.66298e-17 0)
(-2.23099e-17 9.90058e-18 0)
(-1.11735e-17 1.11735e-17 0)
(-1.11747e-17 1.11747e-17 0)
(-1.11735e-17 3.67587e-20 0)
(-3.56009e-20 3.56009e-20 0)
(1.11022e-17 -1.11022e-17 0)
(1.11022e-17 -1.11022e-17 0)
(1.11022e-17 -1.11022e-17 0)
(1.11022e-17 -1.11022e-17 0)
(1.11022e-17 -1.11022e-17 0)
(1.11022e-17 -1.11022e-17 0)
(1.11022e-17 -1.11022e-17 0)
(-5.60793e-18 -1.11022e-17 0)
(-3.78764e-20 -1.11022e-17 0)
(1.11022e-17 -1.11022e-17 0)
(1.11022e-17 -1.11022e-17 0)
(1.11022e-17 -1.11022e-17 0)
(1.11022e-17 -1.11022e-17 0)
(1.11022e-17 -1.11022e-17 0)
(1.11022e-17 -1.11022e-17 0)
(1.11022e-17 -1.11022e-17 0)
(-3.56009e-20 -1.1101e-17 0)
(-1.11735e-17 3.67587e-20 0)
(-1.11747e-17 3.57855e-20 0)
(-1.11735e-17 1.11735e-17 0)
(-2.23099e-17 1.24452e-17 0)
(-1.11708e-17 -1.09886e-17 0)
(1.11803e-18 2.77887e-18 0)
(-2.62832e-17 -1.4505e-17 0)
(7.43805e-17 5.9882e-18 0)
(-1.76808e-17 7.83826e-19 0)
(-2.03778e-17 6.10594e-18 0)
(1.64815e-17 -1.67575e-17 0)
(3.24818e-18 -1.13131e-17 0)
(-1.71771e-18 -6.02901e-19 0)
(-3.82987e-18 4.26074e-18 0)
(1.80693e-17 -1.36501e-17 0)
(3.15323e-17 -6.09671e-19 0)
(2.29348e-18 -1.27134e-17 0)
(-1.11718e-17 1.54688e-17 0)
(2.22395e-17 -8.66859e-18 0)
(-1.11747e-17 1.11747e-17 0)
(-3.56009e-20 3.56009e-20 0)
(1.11022e-17 -1.11022e-17 0)
(1.11022e-17 -1.11022e-17 0)
(1.11022e-17 -1.11022e-17 0)
(1.11022e-17 -1.11022e-17 0)
(1.11022e-17 -1.11022e-17 0)
(1.11022e-17 -1.11022e-17 0)
(1.11023e-17 -1.11023e-17 0)
(1.11013e-17 5.60961e-18 0)
(1.11013e-17 5.60961e-18 0)
(-1.16558e-17 5.60961e-18 0)
(6.01212e-18 5.60961e-18 0)
(1.11013e-17 5.60961e-18 0)
(1.11013e-17 5.60961e-18 0)
(1.11023e-17 5.60817e-18 0)
(1.11022e-17 -1.11022e-17 0)
(1.11022e-17 -1.11022e-17 0)
(1.11022e-17 -1.11022e-17 0)
(1.11022e-17 -1.11022e-17 0)
(1.11022e-17 -1.11022e-17 0)
(1.11022e-17 -1.11022e-17 0)
(-3.56009e-20 -1.1101e-17 0)
(-1.11747e-17 3.57855e-20 0)
(2.22395e-17 8.73954e-18 0)
(-1.11718e-17 1.30708e-18 0)
(2.29076e-18 7.2153e-18 0)
(3.15323e-17 1.18019e-17 0)
(-9.7509e-18 1.37588e-17 0)
(-3.82987e-18 6.99671e-18 0)
(2.60742e-17 6.32028e-18 0)
(-2.48522e-17 1.13131e-17 0)
(1.23355e-17 -1.69022e-17 0)
(8.68009e-18 9.46355e-18 0)
(-1.24488e-17 1.95994e-18 0)
(-2.42894e-17 5.38828e-18 0)
(-1.99995e-18 9.66787e-19 0)
(-5.60165e-18 2.944e-18 0)
(-2.23097e-17 -1.23661e-18 0)
(-1.09794e-17 1.11745e-17 0)
(-3.56009e-20 3.56009e-20 0)
(1.11022e-17 -1.11022e-17 0)
(1.11022e-17 -1.11022e-17 0)
(1.11022e-17 -1.11022e-17 0)
(1.11022e-17 -1.11022e-17 0)
(1.11022e-17 -1.11022e-17 0)
(1.11023e-17 -1.11023e-17 0)
(1.11013e-17 5.60961e-18 0)
(-5.60854e-18 5.60854e-18 0)
(5.53106e-18 -5.53106e-18 0)
(5.53106e-18 -5.53106e-18 0)
(-2.23248e-17 -5.53106e-18 0)
(5.53106e-18 -5.53106e-18 0)
(5.53106e-18 -5.53106e-18 0)
(5.53106e-18 -5.53106e-18 0)
(-5.60854e-18 -5.53034e-18 0)
(1.11013e-17 5.60961e-18 0)
(1.11023e-17 5.60817e-18 0)
(1.11022e-17 -1.11022e-17 0)
(1.11022e-17 -1.11022e-17 0)
(1.11022e-17 -1.11022e-17 0)
(1.11022e-17 -1.11022e-17 0)
(1.11022e-17 -1.11022e-17 0)
(-3.56009e-20 -1.1101e-17 0)
(-1.09767e-17 -1.11031e-17 0)
(-2.23097e-17 1.30798e-18 0)
(-5.60165e-18 -2.87875e-18 0)
(-2.00009e-18 1.57987e-17 0)
(-2.43112e-17 -1.08792e-17 0)
(-1.24271e-17 3.69209e-18 0)
(8.65833e-18 -3.75108e-18 0)
(1.23245e-17 1.69022e-17 0)
(1.86002e-17 -5.68731e-18 0)
(9.96819e-18 1.0708e-19 0)
(-1.99542e-17 -5.17227e-18 0)
(1.9687e-17 -4.82174e-17 0)
(7.66203e-18 1.5123e-17 0)
(-1.11707e-17 1.66297e-17 0)
(1.17604e-17 9.90234e-18 0)
(-3.56007e-20 3.56007e-20 0)
(1.11022e-17 -1.11022e-17 0)
(1.11022e-17 -1.11022e-17 0)
(1.11022e-17 -1.11022e-17 0)
(1.11022e-17 -1.11022e-17 0)
(1.11023e-17 -1.11023e-17 0)
(1.11013e-17 5.60961e-18 0)
(-5.60854e-18 5.60854e-18 0)
(5.53106e-18 -5.53106e-18 0)
(5.53106e-18 -5.53106e-18 0)
(5.53106e-18 -5.53106e-18 0)
(5.53106e-18 -5.53106e-18 0)
(-4.01124e-20 -5.53106e-18 0)
(1.11022e-17 -5.53106e-18 0)
(5.53106e-18 -5.53106e-18 0)
(5.53106e-18 -5.53106e-18 0)
(5.53106e-18 -5.53106e-18 0)
(5.53106e-18 -5.53106e-18 0)
(-5.60854e-18 -5.53034e-18 0)
(1.11013e-17 5.60961e-18 0)
(1.11023e-17 5.60817e-18 0)
(1.11022e-17 -1.11022e-17 0)
(1.11022e-17 -1.11022e-17 0)
(1.11022e-17 -1.11022e-17 0)
(1.11022e-17 -1.11022e-17 0)
(-3.56007e-20 -1.1101e-17 0)
(1.17604e-17 1.31043e-18 0)
(-1.11707e-17 -5.42011e-18 0)
(7.66203e-18 -2.61865e-17 0)
(1.96815e-17 4.82745e-17 0)
(2.2935e-18 -3.15394e-19 0)
(9.97949e-18 5.54981e-18 0)
(1.86002e-17 5.68731e-18 0)
(-4.07472e-17 2.23143e-17 0)
(-3.88494e-17 -1.83462e-17 0)
(6.94323e-18 1.60011e-17 0)
(-1.95458e-17 -1.88063e-17 0)
(5.53408e-18 2.94389e-18 0)
(-4.98362e-18 1.50421e-17 0)
(3.38082e-17 8.03847e-18 0)
(1.11022e-17 -1.11022e-17 0)
(1.11022e-17 -1.11022e-17 0)
(1.11022e-17 -1.11022e-17 0)
(1.11022e-17 -1.11022e-17 0)
(1.11023e-17 -1.11023e-17 0)
(-5.60854e-18 5.60854e-18 0)
(5.53106e-18 -5.53106e-18 0)
(5.53106e-18 -5.53106e-18 0)
(5.53106e-18 -5.53106e-18 0)
(5.53106e-18 -5.53106e-18 0)
(5.53106e-18 -5.53106e-18 0)
(5.53106e-18 -5.53106e-18 0)
(-1.67536e-17 -5.53106e-18 0)
(2.78157e-17 -5.53106e-18 0)
(5.53106e-18 -5.53106e-18 0)
(5.53106e-18 -5.53106e-18 0)
(5.53106e-18 -5.53106e-18 0)
(5.53106e-18 -5.53106e-18 0)
(5.53106e-18 -5.53106e-18 0)
(5.53106e-18 -5.53106e-18 0)
(-5.60854e-18 -5.53034e-18 0)
(1.11023e-17 5.60817e-18 0)
(1.11022e-17 -1.11022e-17 0)
(1.11022e-17 -1.11022e-17 0)
(1.11022e-17 -1.11022e-17 0)
(1.11022e-17 -1.11022e-17 0)
(3.38082e-17 3.17276e-18 0)
(-4.98362e-18 -2.05388e-17 0)
(5.53408e-18 -2.87593e-18 0)
(-1.95486e-17 4.11412e-17 0)
(-2.08741e-17 -2.15108e-17 0)
(-3.88494e-17 1.84549e-17 0)
(-1.83663e-17 -4.47007e-17 0)
(4.56308e-17 -2.24192e-17 0)
(-1.08727e-17 2.70407e-17 0)
(3.09637e-17 -1.05869e-17 0)
(-1.37185e-17 2.59896e-18 0)
(1.11019e-17 1.22174e-17 0)
(-1.18311e-17 -2.05124e-18 0)
(-1.11776e-17 -1.1102e-17 0)
(1.11022e-17 -1.11022e-17 0)
(1.11022e-17 -1.11022e-17 0)
(1.11022e-17 -1.11022e-17 0)
(1.11023e-17 -1.11023e-17 0)
(-5.60854e-18 5.60854e-18 0)
(5.53106e-18 -5.53106e-18 0)
(5.53106e-18 -5.53106e-18 0)
(5.53106e-18 -5.53106e-18 0)
(5.53106e-18 -5.53106e-18 0)
(5.53106e-18 -5.53106e-18 0)
(5.53106e-18 -5.53106e-18 0)
(5.53106e-18 -5.53106e-18 0)
(3.33869e-17 -5.53106e-18 0)
(-2.23248e-17 -5.53106e-18 0)
(5.53106e-18 -5.53106e-18 0)
(5.53106e-18 -5.53106e-18 0)
(5.53106e-18 -5.53106e-18 0)
(5.53106e-18 -5.53106e-18 0)
(5.53106e-18 -5.53106e-18 0)
(5.53106e-18 -5.53106e-18 0)
(5.53106e-18 -5.53106e-18 0)
(-5.60854e-18 -5.53034e-18 0)
(1.11023e-17 5.60817e-18 0)
(1.11022e-17 -1.11022e-17 0)
(1.11022e-17 -1.11022e-17 0)
(1.11022e-17 -1.11022e-17 0)
(-1.11776e-17 1.11776e-17 0)
(-1.18311e-17 -1.45843e-17 0)
(1.11019e-17 -6.5795e-18 0)
(8.54862e-18 -8.09081e-18 0)
(3.0942e-17 3.28949e-17 0)
(1.14092e-17 -2.69863e-17 0)
(1.76654e-17 6.43905e-20 0)
(3.39291e-18 -1.12181e-17 0)
(1.88843e-17 -7.14883e-20 0)
(-2.963e-17 -6.49093e-19 0)
(1.34603e-17 -1.89755e-17 0)
(1.19543e-17 5.76578e-18 0)
(1.1334e-17 8.03847e-18 0)
(-1.6748e-17 -1.11022e-17 0)
(1.11022e-17 -1.11022e-17 0)
(1.11022e-17 -1.11022e-17 0)
(1.11023e-17 -1.11023e-17 0)
(-5.60854e-18 5.60854e-18 0)
(5.53106e-18 -5.53106e-18 0)
(5.53106e-18 -5.53106e-18 0)
(5.53106e-18 -5.53106e-18 0)
(5.53106e-18 -5.53106e-18 0)
(5.53106e-18 -5.53106e-18 0)
(5.53108e-18 -5.53108e-18 0)
(5.53315e-18 1.11847e-17 0)
(5.53315e-18 1.11847e-17 0)
(6.76013e-18 1.11847e-17 0)
(4.30481e-18 1.11847e-17 0)
(5.53315e-18 1.11847e-17 0)
(5.53315e-18 1.11847e-17 0)
(5.53108e-18 1.11828e-17 0)
(5.53106e-18 -5.53106e-18 0)
(5.53106e-18 -5.53106e-18 0)
(5.53106e-18 -5.53106e-18 0)
(5.53106e-18 -5.53106e-18 0)
(5.53106e-18 -5.53106e-18 0)
(-5.60854e-18 -5.53034e-18 0)
(1.11023e-17 5.60817e-18 0)
(1.11022e-17 -1.11022e-17 0)
(1.11022e-17 -1.11022e-17 0)
(-1.6748e-17 -1.11022e-17 0)
(1.1334e-17 3.17276e-18 0)
(1.19543e-17 -5.6944e-18 0)
(-1.43768e-17 3.01806e-17 0)
(-2.963e-17 -1.04197e-17 0)
(1.88843e-17 1.12865e-17 0)
(3.39291e-18 1.12181e-17 0)
(-5.4865e-18 5.53366e-18 0)
(2.32211e-17 1.34004e-18 0)
(1.47245e-18 -2.01962e-17 0)
(-5.60154e-18 2.30716e-17 0)
(-1.11874e-18 3.28947e-18 0)
(-1.11776e-17 -1.1102e-17 0)
(1.11022e-17 -1.11022e-17 0)
(1.11022e-17 -1.11022e-17 0)
(1.11023e-17 -1.11023e-17 0)
(-5.60854e-18 5.60854e-18 0)
(5.53106e-18 -5.53106e-18 0)
(5.53106e-18 -5.53106e-18 0)
(5.53106e-18 -5.53106e-18 0)
(5.53106e-18 -5.53106e-18 0)
(5.53108e-18 -5.53108e-18 0)
(5.53315e-18 1.11847e-17 0)
(-1.11837e-17 1.11837e-17 0)
(-4.23494e-20 4.23494e-20 0)
(-4.23494e-20 4.23494e-20 0)
(1.11022e-17 4.23494e-20 0)
(-1.11869e-17 4.23494e-20 0)
(-4.23494e-20 4.23494e-20 0)
(-4.23494e-20 4.23494e-20 0)
(-1.11837e-17 4.26052e-20 0)
(5.53315e-18 1.11847e-17 0)
(5.53108e-18 1.11828e-17 0)
(5.53106e-18 -5.53106e-18 0)
(5.53106e-18 -5.53106e-18 0)
(5.53106e-18 -5.53106e-18 0)
(5.53106e-18 -5.53106e-18 0)
(-5.60854e-18 -5.53034e-18 0)
(1.11023e-17 5.60817e-18 0)
(1.11022e-17 -1.11022e-17 0)
(1.11022e-17 -1.11022e-17 0)
(-1.11776e-17 1.11776e-17 0)
(-1.11908e-18 -1.4357e-17 0)
(-5.60154e-18 -2.30002e-17 0)
(1.47315e-18 9.14041e-18 0)
(2.32211e-17 -1.26125e-18 0)
(-5.4865e-18 -2.78361e-17 0)
(-1.95678e-17 3.33886e-17 0)
(5.92468e-18 -2.50075e-17 0)
(1.28033e-17 3.59052e-19 0)
(-3.25928e-17 2.8615e-17 0)
(2.80067e-17 1.33239e-17 0)
(-1.6748e-17 -1.11022e-17 0)
(1.11022e-17 -1.11022e-17 0)
(1.11022e-17 -1.11022e-17 0)
(-5.60961e-18 -1.11013e-17 0)
(5.53106e-18 -5.53106e-18 0)
(5.53106e-18 -5.53106e-18 0)
(5.53106e-18 -5.53106e-18 0)
(5.53106e-18 -5.53106e-18 0)
(5.53108e-18 -5.53108e-18 0)
(-1.11837e-17 1.11837e-17 0)
(-4.23494e-20 4.23494e-20 0)
(-4.23494e-20 4.23494e-20 0)
(-4.23494e-20 4.23494e-20 0)
(-4.23494e-20 4.23494e-20 0)
(3.33914e-17 4.23494e-20 0)
(-3.34761e-17 4.23494e-20 0)
(-4.23494e-20 4.23494e-20 0)
(-4.23494e-20 4.23494e-20 0)
(-4.23494e-20 4.23494e-20 0)
(-4.23494e-20 4.23494e-20 0)
(-1.11837e-17 4.26052e-20 0)
(5.53108e-18 1.11828e-17 0)
(5.53106e-18 -5.53106e-18 0)
(5.53106e-18 -5.53106e-18 0)
(5.53106e-18 -5.53106e-18 0)
(5.53106e-18 -5.53106e-18 0)
(-5.60961e-18 -5.53166e-18 0)
(1.11022e-17 -1.11022e-17 0)
(1.11022e-17 -1.11022e-17 0)
(-1.6748e-17 -1.11022e-17 0)
(2.80095e-17 3.45898e-18 0)
(-3.25928e-17 -6.26603e-18 0)
(1.28033e-17 1.08407e-17 0)
(5.93012e-18 2.50687e-17 0)
(-1.95787e-17 -3.33886e-17 0)
(3.51146e-17 2.2247e-17 0)
(6.1908e-18 -2.12593e-17 0)
(-3.44131e-20 1.66272e-17 0)
(-7.04254e-18 2.55618e-17 0)
(-1.67478e-17 -1.11021e-17 0)
(1.11022e-17 -1.11022e-17 0)
(1.11022e-17 -1.11022e-17 0)
(1.11023e-17 -1.11023e-17 0)
(-5.60854e-18 5.60854e-18 0)
(5.53106e-18 -5.53106e-18 0)
(5.53106e-18 -5.53106e-18 0)
(5.53106e-18 -5.53106e-18 0)
(5.53108e-18 -5.53108e-18 0)
(-1.11837e-17 1.11837e-17 0)
(-4.23494e-20 4.23494e-20 0)
(-4.23494e-20 4.23494e-20 0)
(-4.23494e-20 4.23494e-20 0)
(-4.23494e-20 4.23494e-20 0)
(-4.23494e-20 4.23494e-20 0)
(-1.67592e-17 4.23494e-20 0)
(1.66745e-17 4.23494e-20 0)
(-4.23494e-20 4.23494e-20 0)
(-4.23494e-20 4.23494e-20 0)
(-4.23494e-20 4.23494e-20 0)
(-4.23494e-20 4.23494e-20 0)
(-4.23494e-20 4.23494e-20 0)
(-1.11837e-17 4.26052e-20 0)
(5.53108e-18 1.11828e-17 0)
(5.53106e-18 -5.53106e-18 0)
(5.53106e-18 -5.53106e-18 0)
(5.53106e-18 -5.53106e-18 0)
(-5.60854e-18 -5.53034e-18 0)
(1.11023e-17 5.60817e-18 0)
(1.11022e-17 -1.11022e-17 0)
(1.11022e-17 -1.11022e-17 0)
(-1.67478e-17 5.60773e-18 0)
(-7.04259e-18 -8.78244e-18 0)
(-3.44131e-20 -2.21244e-17 0)
(6.18808e-18 3.24589e-17 0)
(3.51146e-17 -2.2247e-17 0)
(3.44007e-18 -4.45902e-17 0)
(5.53385e-18 -1.00493e-17 0)
(1.667e-17 2.10365e-17 0)
(1.62096e-17 7.32515e-18 0)
(1.11022e-17 -1.11022e-17 0)
(1.11022e-17 -1.11022e-17 0)
(1.11022e-17 -1.11022e-17 0)
(-5.60961e-18 -1.11013e-17 0)
(5.53106e-18 -5.53106e-18 0)
(5.53106e-18 -5.53106e-18 0)
(5.53106e-18 -5.53106e-18 0)
(5.53106e-18 -5.53106e-18 0)
(-1.11847e-17 -5.53315e-18 0)
(-4.23494e-20 4.23494e-20 0)
(-4.23494e-20 4.23494e-20 0)
(-4.23494e-20 4.23494e-20 0)
(-4.23494e-20 4.23494e-20 0)
(-4.23494e-20 4.23494e-20 0)
(-4.23494e-20 4.23494e-20 0)
(-4.23494e-20 4.23494e-20 0)
(-2.23315e-17 4.23494e-20 0)
(-4.23494e-20 4.23494e-20 0)
(-4.23494e-20 4.23494e-20 0)
(-4.23494e-20 4.23494e-20 0)
(-4.23494e-20 4.23494e-20 0)
(-4.23494e-20 4.23494e-20 0)
(-4.23494e-20 4.23494e-20 0)
(-1.11847e-17 4.43976e-20 0)
(5.53106e-18 -5.53106e-18 0)
(5.53106e-18 -5.53106e-18 0)
(5.53106e-18 -5.53106e-18 0)
(5.53106e-18 -5.53106e-18 0)
(-5.60961e-18 -5.53166e-18 0)
(1.11022e-17 -1.11022e-17 0)
(1.11022e-17 -1.11022e-17 0)
(1.11022e-17 -1.11022e-17 0)
(1.62108e-17 3.88551e-18 0)
(1.667e-17 -2.0966e-17 0)
(5.53385e-18 -1.21492e-17 0)
(3.43857e-18 2.23116e-17 0)
(8.84238e-19 -3.90189e-17 0)
(-1.11707e-17 -2.17629e-19 0)
(-1.07111e-17 -6.87931e-18 0)
(-3.56003e-20 2.78841e-17 0)
(1.11022e-17 -1.11022e-17 0)
(1.11022e-17 -1.11022e-17 0)
(1.11023e-17 -1.11023e-17 0)
(-5.60854e-18 5.60854e-18 0)
(5.53106e-18 -5.53106e-18 0)
(5.53106e-18 -5.53106e-18 0)
(5.53106e-18 -5.53106e-18 0)
(5.53108e-18 -5.53108e-18 0)
(-1.11837e-17 1.11837e-17 0)
(-4.23494e-20 4.23494e-20 0)
(-4.23494e-20 4.23494e-20 0)
(-4.23494e-20 4.23494e-20 0)
(-4.23494e-20 4.23494e-20 0)
(-4.23494e-20 4.23494e-20 0)
(-4.23494e-20 4.23494e-20 0)
(1.11022e-17 4.23494e-20 0)
(1.66745e-17 4.23494e-20 0)
(-4.23494e-20 4.23494e-20 0)
(-4.23494e-20 4.23494e-20 0)
(-4.23494e-20 4.23494e-20 0)
(-4.23494e-20 4.23494e-20 0)
(-4.23494e-20 4.23494e-20 0)
(-4.23494e-20 4.23494e-20 0)
(-1.11837e-17 4.26052e-20 0)
(5.53108e-18 1.11828e-17 0)
(5.53106e-18 -5.53106e-18 0)
(5.53106e-18 -5.53106e-18 0)
(5.53106e-18 -5.53106e-18 0)
(-5.60854e-18 -5.53034e-18 0)
(1.11023e-17 5.60817e-18 0)
(1.11022e-17 -1.11022e-17 0)
(1.11022e-17 -1.11022e-17 0)
(-3.56003e-20 -1.66726e-17 0)
(-1.07111e-17 6.95069e-18 0)
(-1.11707e-17 -1.64146e-17 0)
(8.84238e-19 3.90189e-17 0)
(1.66714e-17 -2.23117e-17 0)
(-3.51936e-20 1.77584e-17 0)
(2.15837e-17 -5.94816e-18 0)
(1.11022e-17 -1.11022e-17 0)
(1.11022e-17 -1.11022e-17 0)
(1.11022e-17 -1.11022e-17 0)
(-5.60961e-18 -1.11013e-17 0)
(5.53106e-18 -5.53106e-18 0)
(5.53106e-18 -5.53106e-18 0)
(5.53106e-18 -5.53106e-18 0)
(5.53106e-18 -5.53106e-18 0)
(-1.11847e-17 -5.53315e-18 0)
(-4.23494e-20 4.23494e-20 0)
(-4.23494e-20 4.23494e-20 0)
(-4.23494e-20 4.23494e-20 0)
(-4.23494e-20 4.23494e-20 0)
(-4.23494e-20 4.23494e-20 0)
(-4.23494e-20 4.23494e-20 0)
(-4.23494e-20 4.23494e-20 0)
(1.66745e-17 4.23494e-20 0)
(5.52994e-18 4.23494e-20 0)
(-4.23494e-20 4.23494e-20 0)
(-4.23494e-20 4.23494e-20 0)
(-4.23494e-20 4.23494e-20 0)
(-4.23494e-20 4.23494e-20 0)
(-4.23494e-20 4.23494e-20 0)
(-4.23494e-20 4.23494e-20 0)
(-4.23494e-20 4.23494e-20 0)
(-1.11847e-17 4.43976e-20 0)
(5.53106e-18 -5.53106e-18 0)
(5.53106e-18 -5.53106e-18 0)
(5.53106e-18 -5.53106e-18 0)
(5.53106e-18 -5.53106e-18 0)
(-5.60961e-18 -5.53166e-18 0)
(1.11022e-17 -1.11022e-17 0)
(1.11022e-17 -1.11022e-17 0)
(1.11022e-17 -1.11022e-17 0)
(2.15839e-17 -1.06877e-17 0)
(-2.23087e-17 -6.55127e-18 0)
(1.66714e-17 3.49766e-20 0)
(-2.23114e-17 5.53371e-18 0)
(-3.55288e-20 -2.13657e-17 0)
(5.33827e-18 1.11734e-17 0)
(1.11022e-17 -1.11022e-17 0)
(1.11022e-17 -1.11022e-17 0)
(1.11022e-17 -1.11022e-17 0)
(-5.60961e-18 -1.11013e-17 0)
(5.53106e-18 -5.53106e-18 0)
(5.53106e-18 -5.53106e-18 0)
(5.53106e-18 -5.53106e-18 0)
(5.53106e-18 -5.53106e-18 0)
(-1.11847e-17 -5.53315e-18 0)
(-4.23494e-20 4.23494e-20 0)
(-4.23494e-20 4.23494e-20 0)
(-4.23494e-20 4.23494e-20 0)
(-4.23494e-20 4.23494e-20 0)
(-4.23494e-20 4.23494e-20 0)
(-4.23494e-20 4.23494e-20 0)
(-4.23494e-20 4.23494e-20 0)
(-2.79038e-17 4.23494e-20 0)
(-4.23494e-20 4.23494e-20 0)
(-4.23494e-20 4.23494e-20 0)
(-4.23494e-20 4.23494e-20 0)
(-4.23494e-20 4.23494e-20 0)
(-4.23494e-20 4.23494e-20 0)
(-4.23494e-20 4.23494e-20 0)
(-4.23494e-20 4.23494e-20 0)
(-4.23494e-20 4.23494e-20 0)
(-1.11847e-17 4.43976e-20 0)
(5.53106e-18 -5.53106e-18 0)
(5.53106e-18 -5.53106e-18 0)
(5.53106e-18 -5.53106e-18 0)
(5.53106e-18 -5.53106e-18 0)
(-5.60961e-18 -5.53166e-18 0)
(1.11022e-17 -1.11022e-17 0)
(1.11022e-17 -1.11022e-17 0)
(1.11022e-17 -1.11022e-17 0)
(5.33725e-18 -1.10986e-17 0)
(2.78081e-17 1.02993e-17 0)
(-2.23114e-17 1.6742e-17 0)
(1.66711e-17 -3.55007e-20 0)
(-1.11734e-17 -1.50381e-17 0)
(-3.67587e-20 -1.81806e-17 0)
(1.11022e-17 2.46881e-17 0)
(1.11022e-17 -9.04998e-18 0)
(1.11022e-17 -1.41019e-17 0)
(-5.60961e-18 1.1018e-17 0)
(5.53106e-18 -1.5743e-19 0)
(5.53106e-18 1.23494e-17 0)
(5.53106e-18 -2.24524e-17 0)
(5.53106e-18 3.53692e-18 0)
(-1.11847e-17 4.78326e-18 0)
(-4.23494e-20 -4.40556e-19 0)
(-4.23494e-20 3.44129e-17 0)
(-4.23494e-20 1.27834e-17 0)
(-4.23494e-20 -1.15774e-17 0)
(-4.23494e-20 -1.74524e-17 0)
(-4.23494e-20 1.4935e-18 0)
(-4.23494e-20 5.7325e-18 0)
(-4.23494e-20 -2.30085e-17 0)
(-4.23494e-20 1.22627e-17 0)
(-4.23494e-20 1.57665e-17 0)
(-4.23494e-20 -1.962e-17 0)
(-4.23494e-20 6.04507e-18 0)
(-4.23494e-20 2.7058e-18 0)
(-4.23494e-20 2.01973e-17 0)
(-4.23494e-20 -2.76389e-17 0)
(-4.23494e-20 2.33638e-18 0)
(-1.11847e-17 2.87138e-17 0)
(5.53106e-18 -1.76052e-17 0)
(5.53106e-18 3.95592e-18 0)
(5.53106e-18 7.52351e-18 0)
(5.53106e-18 6.23241e-18 0)
(-5.60961e-18 -1.87619e-17 0)
(1.11022e-17 -9.75474e-18 0)
(1.11022e-17 3.00645e-17 0)
(1.11022e-17 1.97872e-18 0)
(-3.67587e-20 1.49498e-17 0)
(-1.11734e-17 2.46554e-18 0)
(1.66711e-17 -1.11024e-17 0)
(-1.11735e-17 -3.55705e-20 0)
(-1.11735e-17 1.67424e-17 0)
(-3.67587e-20 -2.3266e-17 0)
(1.11022e-17 -1.66723e-17 0)
(1.11022e-17 2.23181e-17 0)
(1.11022e-17 -1.66723e-17 0)
(-5.60961e-18 1.81879e-17 0)
(5.53106e-18 1.11825e-17 0)
(5.53106e-18 -5.53106e-18 0)
(5.53106e-18 1.11825e-17 0)
(5.53106e-18 -5.56716e-17 0)
(-1.11847e-17 1.16677e-17 0)
(-4.23494e-20 2.23315e-17 0)
(-4.23494e-20 4.23494e-20 0)
(-4.23494e-20 4.23494e-20 0)
(-4.23494e-20 -2.78191e-17 0)
(-4.23494e-20 1.11869e-17 0)
(-4.23494e-20 4.23494e-20 0)
(-4.23494e-20 1.67592e-17 0)
(-4.23494e-20 1.11869e-17 0)
(-4.23494e-20 -1.11022e-17 0)
(-4.23494e-20 4.23494e-20 0)
(-4.23494e-20 4.23494e-20 0)
(-4.23494e-20 -1.11022e-17 0)
(-4.23494e-20 2.23315e-17 0)
(-4.23494e-20 -5.52994e-18 0)
(-4.23494e-20 -5.52994e-18 0)
(-4.23494e-20 -1.11022e-17 0)
(-1.11847e-17 -4.45305e-19 0)
(5.53106e-18 1.11825e-17 0)
(5.53106e-18 -5.53106e-18 0)
(5.53106e-18 -1.11022e-17 0)
(5.53106e-18 -1.11022e-17 0)
(-5.60961e-18 3.20292e-17 0)
(1.11022e-17 2.23181e-17 0)
(1.11022e-17 -1.66723e-17 0)
(1.11022e-17 -5.53218e-18 0)
(-3.67587e-20 2.89089e-17 0)
(-3.55299e-20 9.09187e-19 0)
(-2.23113e-17 -4.45157e-17 0)
(-1.11735e-17 1.66712e-17 0)
(-1.11735e-17 1.11735e-17 0)
(-3.67587e-20 1.11735e-17 0)
(1.11022e-17 -1.11022e-17 0)
(1.11022e-17 -1.11022e-17 0)
(1.11022e-17 -1.11022e-17 0)
(-5.60961e-18 -1.11013e-17 0)
(5.53106e-18 -5.53106e-18 0)
(5.53106e-18 -5.53106e-18 0)
(5.53106e-18 -5.53106e-18 0)
(5.53106e-18 -5.53106e-18 0)
(-1.11847e-17 -5.53315e-18 0)
(-4.23494e-20 4.23494e-20 0)
(-4.23494e-20 4.23494e-20 0)
(-4.23494e-20 4.23494e-20 0)
(-4.23494e-20 4.23494e-20 0)
(-4.23494e-20 4.23494e-20 0)
(-4.23494e-20 4.23494e-20 0)
(-4.23494e-20 4.23494e-20 0)
(-4.23494e-20 4.23494e-20 0)
(-4.23494e-20 4.23494e-20 0)
(-4.23494e-20 4.23494e-20 0)
(-4.23494e-20 4.23494e-20 0)
(-4.23494e-20 4.23494e-20 0)
(-4.23494e-20 4.23494e-20 0)
(-4.23494e-20 4.23494e-20 0)
(-4.23494e-20 4.23494e-20 0)
(-4.23494e-20 4.23494e-20 0)
(-1.11847e-17 4.43976e-20 0)
(5.53106e-18 -5.53106e-18 0)
(5.53106e-18 -5.53106e-18 0)
(5.53106e-18 -5.53106e-18 0)
(5.53106e-18 -5.53106e-18 0)
(-5.60961e-18 -5.53166e-18 0)
(1.11022e-17 -1.11022e-17 0)
(1.11022e-17 -1.11022e-17 0)
(1.11022e-17 -1.11022e-17 0)
(1.58117e-19 -1.10986e-17 0)
(-2.23101e-17 6.6222e-18 0)
(1.66706e-17 -5.53373e-18 0)
(-1.11735e-17 -1.11735e-17 0)
(-1.11735e-17 1.11735e-17 0)
(-3.67587e-20 1.11735e-17 0)
(1.11022e-17 -1.11022e-17 0)
(1.11022e-17 -1.11022e-17 0)
(1.11022e-17 -1.11022e-17 0)
(-5.60961e-18 -1.11013e-17 0)
(5.53106e-18 -5.53106e-18 0)
(5.53106e-18 -5.53106e-18 0)
(5.53106e-18 -5.53106e-18 0)
(5.53106e-18 -5.53106e-18 0)
(-1.11847e-17 -5.53315e-18 0)
(-4.23494e-20 4.23494e-20 0)
(-4.23494e-20 4.23494e-20 0)
(-4.23494e-20 4.23494e-20 0)
(-4.23494e-20 4.23494e-20 0)
(-4.23494e-20 4.23494e-20 0)
(-4.23494e-20 4.23494e-20 0)
(-4.23494e-20 4.23494e-20 0)
(-2.79038e-17 4.23494e-20 0)
(5.52994e-18 4.23494e-20 0)
(-4.23494e-20 4.23494e-20 0)
(-4.23494e-20 4.23494e-20 0)
(-4.23494e-20 4.23494e-20 0)
(-4.23494e-20 4.23494e-20 0)
(-4.23494e-20 4.23494e-20 0)
(-4.23494e-20 4.23494e-20 0)
(-4.23494e-20 4.23494e-20 0)
(-1.11847e-17 4.43976e-20 0)
(5.53106e-18 -5.53106e-18 0)
(5.53106e-18 -5.53106e-18 0)
(5.53106e-18 -5.53106e-18 0)
(5.53106e-18 -5.53106e-18 0)
(-5.60961e-18 -5.53166e-18 0)
(1.11022e-17 -1.11022e-17 0)
(1.11022e-17 -1.11022e-17 0)
(1.11022e-17 -1.11022e-17 0)
(-4.94909e-18 -1.78002e-17 0)
(1.66706e-17 -1.69238e-17 0)
(-2.23139e-17 3.49766e-20 0)
(-1.11735e-17 -1.11735e-17 0)
(-1.11735e-17 1.11735e-17 0)
(-3.57855e-20 1.11747e-17 0)
(1.1101e-17 3.56009e-20 0)
(1.11022e-17 -1.11022e-17 0)
(1.11022e-17 -1.11022e-17 0)
(-5.60817e-18 -1.11023e-17 0)
(5.53034e-18 5.60854e-18 0)
(5.53106e-18 -5.53106e-18 0)
(5.53106e-18 -5.53106e-18 0)
(5.53106e-18 -5.53106e-18 0)
(-1.11828e-17 -5.53108e-18 0)
(-4.26052e-20 1.11837e-17 0)
(-4.23494e-20 4.23494e-20 0)
(-4.23494e-20 4.23494e-20 0)
(-4.23494e-20 4.23494e-20 0)
(-4.23494e-20 4.23494e-20 0)
(-4.23494e-20 4.23494e-20 0)
(-4.23494e-20 4.23494e-20 0)
(1.66745e-17 4.23494e-20 0)
(1.11022e-17 4.23494e-20 0)
(-4.23494e-20 4.23494e-20 0)
(-4.23494e-20 4.23494e-20 0)
(-4.23494e-20 4.23494e-20 0)
(-4.23494e-20 4.23494e-20 0)
(-4.23494e-20 4.23494e-20 0)
(-4.23494e-20 4.23494e-20 0)
(-4.26052e-20 4.26052e-20 0)
(-1.11828e-17 1.11828e-17 0)
(5.53106e-18 -5.53106e-18 0)
(5.53106e-18 -5.53106e-18 0)
(5.53106e-18 -5.53106e-18 0)
(5.53034e-18 -5.53034e-18 0)
(-5.60817e-18 5.60817e-18 0)
(1.11022e-17 -1.11022e-17 0)
(1.11022e-17 -1.11022e-17 0)
(1.66726e-17 -3.59484e-18 0)
(1.06398e-17 -1.44074e-18 0)
(5.53413e-18 -1.00526e-17 0)
(1.01803e-17 3.90189e-17 0)
(-1.11735e-17 -1.11735e-17 0)
(-1.11735e-17 1.11735e-17 0)
(-1.11735e-17 1.11735e-17 0)
(-3.67587e-20 1.11735e-17 0)
(1.11022e-17 -1.11022e-17 0)
(1.11022e-17 -1.11022e-17 0)
(1.11022e-17 -1.11022e-17 0)
(-5.60961e-18 -1.11013e-17 0)
(5.53106e-18 -5.53106e-18 0)
(5.53106e-18 -5.53106e-18 0)
(5.53106e-18 -5.53106e-18 0)
(5.53106e-18 -5.53106e-18 0)
(-1.11847e-17 -5.53315e-18 0)
(-4.23494e-20 4.23494e-20 0)
(-4.23494e-20 4.23494e-20 0)
(-4.23494e-20 4.23494e-20 0)
(-4.23494e-20 4.23494e-20 0)
(-4.23494e-20 4.23494e-20 0)
(-4.23494e-20 4.23494e-20 0)
(5.52994e-18 4.23494e-20 0)
(-5.61464e-18 4.23494e-20 0)
(-4.23494e-20 4.23494e-20 0)
(-4.23494e-20 4.23494e-20 0)
(-4.23494e-20 4.23494e-20 0)
(-4.23494e-20 4.23494e-20 0)
(-4.23494e-20 4.23494e-20 0)
(-4.23494e-20 4.23494e-20 0)
(-1.11847e-17 4.43976e-20 0)
(5.53106e-18 -5.53106e-18 0)
(5.53106e-18 -5.53106e-18 0)
(5.53106e-18 -5.53106e-18 0)
(5.53106e-18 -5.53106e-18 0)
(-5.60961e-18 -5.53166e-18 0)
(1.11022e-17 -1.11022e-17 0)
(1.11022e-17 -1.11022e-17 0)
(1.11022e-17 -1.11022e-17 0)
(4.26118e-19 4.12346e-18 0)
(-2.78762e-17 -1.67813e-17 0)
(5.53408e-18 -1.03341e-17 0)
(7.62612e-18 4.45902e-17 0)
(-1.11735e-17 -1.11735e-17 0)
(-1.11735e-17 1.11735e-17 0)
(-1.11735e-17 1.11735e-17 0)
(-3.67587e-20 1.11735e-17 0)
(1.11022e-17 -1.11022e-17 0)
(1.11022e-17 -1.11022e-17 0)
(1.11022e-17 -1.11022e-17 0)
(-5.60817e-18 -1.11023e-17 0)
(5.53034e-18 5.60854e-18 0)
(5.53106e-18 -5.53106e-18 0)
(5.53106e-18 -5.53106e-18 0)
(5.53106e-18 -5.53106e-18 0)
(-1.11828e-17 -5.53108e-18 0)
(-4.26052e-20 1.11837e-17 0)