/*--------------------------------*- C++ -*----------------------------------*\
  =========                 |
  \\      /  F ield         | OpenFOAM: The Open Source CFD Toolbox
   \\    /   O peration     | Website:  https://openfoam.org
    \\  /    A nd           | Version:  13
     \\/     M anipulation  |
\*---------------------------------------------------------------------------*/
FoamFile
{
    format      ascii;
    class       volVectorField;
    location    "0";
    object      vorticity;
}
// * * * * * * * * * * * * * * * * * * * * * * * * * * * * * * * * * * * * * //

dimensions      [0 0 -1 0 0 0 0];

internalField   nonuniform List<vector> 
135432
(
(0 4.52084e-16 0)
(0 -8.84221e-17 0)
(0 -1.6766e-16 0)
(0 1.67232e-16 0)
(-2.22636e-16 2.34811e-17 0)
(0 -1.54032e-16 0)
(2.22695e-16 5.04543e-17 0)
(-2.227e-16 -1.28287e-16 0)
(0 1.63912e-16 0)
(0 -0 0)
(0 -0 0)
(0 -0 0)
(0 -0 0)
(0 -0 0)
(0 -0 0)
(0 -0 0)
(0 -0 0)
(0 -0 0)
(0 -0 0)
(0 -0 0)
(-2.22757e-16 -0 0)
(0 -0 0)
(0 -0 0)
(0 -0 0)
(0 -0 0)
(0 -0 0)
(0 -0 0)
(0 -0 0)
(0 -0 0)
(0 -0 0)
(0 -0 0)
(0 -1.63912e-16 0)
(-2.227e-16 1.28287e-16 0)
(2.22695e-16 -5.04815e-17 0)
(0 1.54032e-16 0)
(0 -2.34811e-17 0)
(2.22976e-16 -1.67232e-16 0)
(0 1.6766e-16 0)
(-2.24119e-16 8.84221e-17 0)
(0 -4.52084e-16 0)
(1.80384e-16 2.2526e-16 0)
(-5.93439e-16 6.59377e-17 0)
(-1.24564e-16 -2.90759e-16 0)
(5.82242e-17 -1.30524e-17 0)
(-1.69949e-17 1.1518e-16 0)
(3.50183e-19 -6.12004e-17 0)
(0 -2.31864e-17 0)
(0 -6.94831e-17 0)
(4.2412e-18 8.19421e-17 0)
(0 -0 0)
(0 -0 0)
(0 -0 0)
(0 -0 0)
(0 -0 0)
(0 -0 0)
(0 -0 0)
(0 -0 0)
(0 -0 0)
(0 -0 0)
(0 -0 0)
(2.22757e-16 -0 0)
(0 -0 0)
(0 -0 0)
(0 -0 0)
(0 -0 0)
(0 -0 0)
(0 -0 0)
(0 -0 0)
(0 -0 0)
(0 -0 0)
(0 -0 0)
(4.2412e-18 -8.19693e-17 0)
(0 6.94831e-17 0)
(0 2.31864e-17 0)
(3.55233e-19 6.12004e-17 0)
(-1.70371e-17 -1.15614e-16 0)
(5.83303e-17 1.39226e-17 0)
(-1.24646e-16 2.90759e-16 0)
(-1.46504e-16 -6.59377e-17 0)
(1.80384e-16 -0 0)
(3.55938e-17 -2.24988e-16 0)
(1.74949e-16 -1.30885e-18 0)
(-8.3188e-17 -3.78919e-17 0)
(2.22503e-16 -1.69215e-16 0)
(2.30365e-16 -2.62963e-17 0)
(-7.16385e-21 -6.11998e-17 0)
(0 4.80573e-17 0)
(-1.05157e-16 -1.7209e-16 0)
(0 -0 0)
(0 -0 0)
(0 -0 0)
(0 -0 0)
(0 -0 0)
(0 -0 0)
(0 -0 0)
(0 -0 0)
(0 -0 0)
(0 -0 0)
(0 -0 0)
(4.14775e-16 -0 0)
(-4.14775e-16 -0 0)
(0 -0 0)
(0 -0 0)
(0 -0 0)
(0 -0 0)
(0 -0 0)
(0 -0 0)
(0 -0 0)
(0 -0 0)
(0 -0 0)
(0 -0 0)
(0 -0 0)
(-1.05157e-16 1.7209e-16 0)
(0 -4.80845e-17 0)
(-6.42401e-21 6.11998e-17 0)
(2.30307e-16 2.60789e-17 0)
(-2.175e-19 1.6878e-16 0)
(-8.36236e-17 3.74564e-17 0)
(3.98326e-16 8.72565e-19 0)
(-1.89175e-16 2.24988e-16 0)
(3.13187e-17 -2.24858e-16 0)
(-8.13135e-17 1.16411e-16 0)
(7.13667e-17 -8.09403e-17 0)
(-5.97745e-17 1.61935e-16 0)
(-3.04701e-16 -2.26461e-16 0)
(-4.26133e-18 -2.37517e-17 0)
(2.60659e-16 4.41453e-17 0)
(-1.009e-16 -5.87834e-17 0)
(0 -0 0)
(0 -0 0)
(0 -0 0)
(0 -0 0)
(0 -0 0)
(0 -0 0)
(0 -0 0)
(0 -0 0)
(0 -0 0)
(0 -0 0)
(0 -0 0)
(-2.22802e-16 -0 0)
(2.22802e-16 -0 0)
(0 -0 0)
(0 -0 0)
(0 -0 0)
(0 -0 0)
(0 -0 0)
(0 -0 0)
(0 -0 0)
(0 -0 0)
(0 -0 0)
(0 -0 0)
(0 -0 0)
(-1.009e-16 5.88377e-17 0)
(2.60631e-16 -4.41725e-17 0)
(-4.25667e-18 2.37517e-17 0)
(-3.0481e-16 2.26244e-16 0)
(1.62587e-16 -1.61935e-16 0)
(7.13667e-17 8.09403e-17 0)
(-3.04544e-16 -1.16411e-16 0)
(3.12638e-17 4.49715e-16 0)
(7.47169e-17 2.24864e-16 0)
(-6.16942e-17 1.55217e-16 0)
(6.27359e-17 -1.41842e-16 0)
(2.30327e-16 -3.04251e-17 0)
(2.43573e-16 -1.48041e-16 0)
(9.6866e-17 3.38107e-17 0)
(3.37106e-17 1.94543e-16 0)
(0 -6.84118e-17 0)
(0 -0 0)
(0 -0 0)
(0 -0 0)
(0 -0 0)
(0 -0 0)
(0 -0 0)
(0 -0 0)
(0 -0 0)
(0 -0 0)
(0 -0 0)
(0 -0 0)
(0 -0 0)
(0 -0 0)
(0 -0 0)
(0 -0 0)
(0 -0 0)
(0 -0 0)
(0 -0 0)
(0 -0 0)
(0 -0 0)
(0 -0 0)
(0 -0 0)
(0 -0 0)
(0 -0 0)
(0 6.84118e-17 0)
(3.36834e-17 -1.94515e-16 0)
(9.6866e-17 -3.38107e-17 0)
(2.43573e-16 1.48014e-16 0)
(-2.14735e-16 3.04251e-17 0)
(6.28719e-17 1.41407e-16 0)
(-6.18032e-17 -1.56961e-16 0)
(7.47443e-17 -0 0)
(-2.41449e-18 2.24767e-16 0)
(1.31677e-16 5.1014e-17 0)
(-1.20803e-16 4.87346e-17 0)
(-2.01761e-16 -1.70819e-16 0)
(-1.51223e-16 -2.15244e-17 0)
(-1.55499e-16 -8.31769e-17 0)
(-2.22725e-16 5.45666e-17 0)
(0 -6.84122e-17 0)
(0 -0 0)
(0 -0 0)
(0 -0 0)
(0 -0 0)
(0 -0 0)
(0 -0 0)
(0 -0 0)
(0 -0 0)
(0 -0 0)
(0 -0 0)
(0 -0 0)
(0 -0 0)
(0 -0 0)
(0 -0 0)
(0 -0 0)
(0 -0 0)
(0 -0 0)
(0 -0 0)
(0 -0 0)
(0 -0 0)
(0 -0 0)
(0 -0 0)
(0 -0 0)
(0 -0 0)
(0 6.84122e-17 0)
(-2.22725e-16 -5.4553e-17 0)
(-1.55501e-16 8.31226e-17 0)
(-1.51218e-16 2.15787e-17 0)
(4.65867e-16 1.70819e-16 0)
(-1.20749e-16 -4.82994e-17 0)
(-9.15635e-17 -5.05779e-17 0)
(2.22353e-16 -2.24767e-16 0)
(-2.23575e-17 -0 0)
(-7.23112e-17 1.04546e-16 0)
(1.78379e-17 -1.253e-16 0)
(2.3658e-16 -1.92785e-16 0)
(9.29513e-17 -6.41418e-18 0)
(-8.8079e-17 3.95268e-17 0)
(0 1.54327e-16 0)
(2.2275e-16 -3.13548e-17 0)
(0 -0 0)
(0 -0 0)
(0 -0 0)
(0 -0 0)
(0 -0 0)
(0 -0 0)
(0 -0 0)
(0 -0 0)
(0 -0 0)
(0 -0 0)
(0 -0 0)
(1.06625e-16 -0 0)
(-1.06625e-16 -0 0)
(0 -0 0)
(0 -0 0)
(0 -0 0)
(0 -0 0)
(0 -0 0)
(0 -0 0)
(0 -0 0)
(0 -0 0)
(0 -0 0)
(0 -0 0)
(0 -0 0)
(2.2275e-16 3.13548e-17 0)
(0 -1.54327e-16 0)
(-8.81061e-17 -3.95268e-17 0)
(9.29513e-17 6.35982e-18 0)
(1.40188e-17 1.92785e-16 0)
(1.78379e-17 1.253e-16 0)
(1.4985e-16 -1.04546e-16 0)
(-2.47248e-16 -0 0)
(2.9265e-16 -2.24223e-16 0)
(-1.35576e-16 3.83007e-17 0)
(-6.84765e-17 7.47807e-17 0)
(-7.56392e-17 -5.78161e-17 0)
(-1.31018e-16 -1.01984e-16 0)
(0 -8.2268e-17 0)
(0 -6.84115e-17 0)
(-1.09451e-16 -0 0)
(0 -0 0)
(0 -0 0)
(0 -0 0)
(0 -0 0)
(0 -0 0)
(0 -0 0)
(0 -0 0)
(0 -0 0)
(0 -0 0)
(0 -0 0)
(0 -0 0)
(0 -0 0)
(0 -0 0)
(0 -0 0)
(0 -0 0)
(0 -0 0)
(0 -0 0)
(0 -0 0)
(0 -0 0)
(0 -0 0)
(0 -0 0)
(0 -0 0)
(0 -0 0)
(0 -0 0)
(-1.09424e-16 -0 0)
(0 6.84115e-17 0)
(0 8.22408e-17 0)
(-1.31019e-16 1.0193e-16 0)
(-7.58565e-17 5.79248e-17 0)
(-6.82592e-17 -7.47807e-17 0)
(-1.35793e-16 -3.83007e-17 0)
(2.92541e-16 2.24223e-16 0)
(7.50045e-17 2.24165e-16 0)
(1.00053e-16 -0 0)
(-3.23774e-17 1.70389e-16 0)
(1.97151e-16 -3.71254e-16 0)
(-2.01401e-16 3.95516e-17 0)
(0 5.4566e-17 0)
(1.1796e-16 -6.84159e-17 0)
(0 -0 0)
(0 -0 0)
(0 -0 0)
(0 -0 0)
(0 -0 0)
(0 -0 0)
(0 -0 0)
(0 -0 0)
(0 -0 0)
(0 -0 0)
(0 -0 0)
(0 -0 0)
(0 -0 0)
(0 -0 0)
(0 -0 0)
(0 -0 0)
(0 -0 0)
(0 -0 0)
(0 -0 0)
(0 -0 0)
(0 -0 0)
(0 -0 0)
(0 -0 0)
(0 -0 0)
(0 -0 0)
(0 -0 0)
(1.1796e-16 6.84431e-17 0)
(0 -5.45524e-17 0)
(-2.01401e-16 -3.95244e-17 0)
(1.97096e-16 3.71145e-16 0)
(1.901e-16 -1.70389e-16 0)
(1.00167e-16 -0 0)
(7.50045e-17 -2.24165e-16 0)
(-6.30492e-16 -0 0)
(1.74024e-18 -2.39718e-16 0)
(1.40459e-17 1.03891e-16 0)
(-8.38222e-17 -2.99738e-16 0)
(0 -8.22651e-17 0)
(1.17573e-16 1.50093e-16 0)
(2.27053e-16 -3.13561e-17 0)
(0 -0 0)
(0 -0 0)
(0 -0 0)
(0 -0 0)
(0 -0 0)
(0 -0 0)
(0 -0 0)
(0 -0 0)
(0 -0 0)
(0 -0 0)
(0 -0 0)
(0 -0 0)
(0 -0 0)
(0 -0 0)
(0 -0 0)
(0 -0 0)
(0 -0 0)
(0 -0 0)
(0 -0 0)
(0 -0 0)
(0 -0 0)
(0 -0 0)
(0 -0 0)
(0 -0 0)
(0 -0 0)
(0 -0 0)
(2.27053e-16 3.13561e-17 0)
(1.17573e-16 -1.50066e-16 0)
(0 8.22651e-17 0)
(-8.38493e-17 2.99738e-16 0)
(-2.08487e-16 -1.04108e-16 0)
(1.74024e-18 2.39718e-16 0)
(-4.06628e-16 -2.23864e-16 0)
(3.45365e-16 -2.23548e-16 0)
(-2.75209e-16 2.69992e-16 0)
(3.65578e-16 -1.61924e-16 0)
(-2.48203e-16 -3.00074e-17 0)
(0 -4.52123e-17 0)
(1.04819e-16 1.46191e-16 0)
(-2.22798e-16 -0 0)
(0 -0 0)
(0 -0 0)
(0 -0 0)
(0 -0 0)
(0 -0 0)
(0 -0 0)
(0 -0 0)
(0 -0 0)
(0 -0 0)
(0 -0 0)
(0 -0 0)
(0 -0 0)
(0 -0 0)
(0 -0 0)
(0 -0 0)
(0 -0 0)
(0 -0 0)
(0 -0 0)
(0 -0 0)
(0 -0 0)
(0 -0 0)
(0 -0 0)
(0 -0 0)
(0 -0 0)
(0 -0 0)
(0 -0 0)
(-2.22798e-16 -0 0)
(1.0482e-16 -1.46191e-16 0)
(0 4.52123e-17 0)
(-2.55316e-17 3.00618e-17 0)
(3.65361e-16 1.61815e-16 0)
(-5.26071e-17 -2.69992e-16 0)
(1.21598e-16 -0 0)
(-1.32821e-16 -0 0)
(3.00398e-16 5.4771e-17 0)
(-1.8471e-16 1.04477e-16 0)
(3.57606e-16 -2.4578e-16 0)
(-2.14226e-16 1.13e-16 0)
(1.13703e-16 -3.13561e-17 0)
(0 -0 0)
(0 -0 0)
(0 -0 0)
(0 -0 0)
(0 -0 0)
(0 -0 0)
(0 -0 0)
(0 -0 0)
(0 -0 0)
(0 -0 0)
(0 -0 0)
(0 -0 0)
(0 -0 0)
(1.2297e-17 -0 0)
(-1.22426e-17 -0 0)
(0 -0 0)
(0 -0 0)
(0 -0 0)
(0 -0 0)
(0 -0 0)
(0 -0 0)
(0 -0 0)
(0 -0 0)
(0 -0 0)
(0 -0 0)
(0 -0 0)
(0 -0 0)
(0 -0 0)
(1.13703e-16 3.13561e-17 0)
(-2.14226e-16 -1.13e-16 0)
(1.34904e-16 2.45807e-16 0)
(-1.8471e-16 -1.04532e-16 0)
(7.78368e-17 -5.45537e-17 0)
(-1.32821e-16 -0 0)
(1.12819e-16 -0 0)
(-4.56436e-17 -1.53993e-16 0)
(7.07059e-17 -3.5335e-17 0)
(0 1.7467e-16 0)
(1.00558e-16 2.55287e-16 0)
(-2.22798e-16 -0 0)
(0 -0 0)
(0 -0 0)
(0 -0 0)
(0 -0 0)
(0 -0 0)
(0 -0 0)
(0 -0 0)
(0 -0 0)
(0 -0 0)
(0 -0 0)
(0 -0 0)
(0 -0 0)
(0 -0 0)
(0 -0 0)
(0 -0 0)
(0 -0 0)
(0 -0 0)
(0 -0 0)
(0 -0 0)
(0 -0 0)
(0 -0 0)
(0 -0 0)
(0 -0 0)
(0 -0 0)
(0 -0 0)
(0 -0 0)
(0 -0 0)
(0 -0 0)
(-2.22798e-16 -0 0)
(1.00554e-16 -2.55287e-16 0)
(0 -1.7467e-16 0)
(7.07129e-17 3.53894e-17 0)
(-4.56436e-17 1.54102e-16 0)
(1.12819e-16 -2.23024e-16 0)
(-1.39579e-16 2.22804e-16 0)
(3.85952e-18 -1.39051e-16 0)
(1.70161e-17 -1.08104e-16 0)
(-2.14198e-16 1.18736e-16 0)
(1.1335e-16 -3.42116e-17 0)
(0 -0 0)
(0 -0 0)
(0 -0 0)
(0 -0 0)
(0 -0 0)
(0 -0 0)
(0 -0 0)
(0 -0 0)
(0 -0 0)
(0 -0 0)
(0 -0 0)
(0 -0 0)
(0 -0 0)
(0 -0 0)
(2.22892e-16 -0 0)
(-2.22892e-16 -0 0)
(0 -0 0)
(0 -0 0)
(0 -0 0)
(0 -0 0)
(0 -0 0)
(0 -0 0)
(0 -0 0)
(0 -0 0)
(0 -0 0)
(0 -0 0)
(0 -0 0)
(0 -0 0)
(0 -0 0)
(0 -0 0)
(1.13377e-16 3.42116e-17 0)
(-2.14198e-16 -1.18709e-16 0)
(1.70161e-17 1.08077e-16 0)
(3.91387e-18 1.39051e-16 0)
(-1.39688e-16 -2.22804e-16 0)
(2.40084e-16 -0 0)
(-1.04765e-16 -1.57257e-16 0)
(0 2.77276e-16 0)
(-1.25753e-16 3.24683e-17 0)
(0 -0 0)
(0 -0 0)
(0 -0 0)
(0 -0 0)
(0 -0 0)
(0 -0 0)
(0 -0 0)
(0 -0 0)
(0 -0 0)
(0 -0 0)
(0 -0 0)
(0 -0 0)
(0 -0 0)
(0 -0 0)
(0 -0 0)
(-2.22892e-16 -0 0)
(2.22892e-16 -0 0)
(0 -0 0)
(0 -0 0)
(0 -0 0)
(0 -0 0)
(0 -0 0)
(0 -0 0)
(0 -0 0)
(0 -0 0)
(0 -0 0)
(0 -0 0)
(0 -0 0)
(0 -0 0)
(0 -0 0)
(0 -0 0)
(0 -0 0)
(-1.25754e-16 -3.25227e-17 0)
(0 -2.77263e-16 0)
(-1.04792e-16 1.57229e-16 0)
(2.40084e-16 -0 0)
(-2.09261e-17 -2.22786e-16 0)
(0 -4.51842e-17 0)
(0 1.54326e-16 0)
(2.18154e-16 -3.84521e-17 0)
(0 -0 0)
(0 -0 0)
(0 -0 0)
(0 -0 0)
(0 -0 0)
(0 -0 0)
(0 -0 0)
(0 -0 0)
(0 -0 0)
(0 -0 0)
(0 -0 0)
(0 -0 0)
(0 -0 0)
(0 -0 0)
(0 -0 0)
(-2.22892e-16 -0 0)
(0 -0 0)
(0 -0 0)
(0 -0 0)
(0 -0 0)
(0 -0 0)
(0 -0 0)
(0 -0 0)
(0 -0 0)
(0 -0 0)
(0 -0 0)
(0 -0 0)
(0 -0 0)
(0 -0 0)
(0 -0 0)
(0 -0 0)
(0 -0 0)
(2.18166e-16 3.84521e-17 0)
(0 -1.54326e-16 0)
(0 4.52114e-17 0)
(-2.09411e-17 -0 0)
(-4.64745e-17 -2.22773e-16 0)
(-2.22724e-16 5.31389e-17 0)
(4.62263e-18 -1.805e-16 0)
(0 2.22788e-16 0)
(0 -0 0)
(0 -0 0)
(0 -0 0)
(0 -0 0)
(0 -0 0)
(0 -0 0)
(0 -0 0)
(0 -0 0)
(0 -0 0)
(0 -0 0)
(0 -0 0)
(0 -0 0)
(0 -0 0)
(0 -0 0)
(0 -0 0)
(2.22892e-16 -0 0)
(0 -0 0)
(0 -0 0)
(0 -0 0)
(0 -0 0)
(0 -0 0)
(0 -0 0)
(0 -0 0)
(0 -0 0)
(0 -0 0)
(0 -0 0)
(0 -0 0)
(0 -0 0)
(0 -0 0)
(0 -0 0)
(0 -0 0)
(0 -0 0)
(0 -2.22788e-16 0)
(4.62263e-18 1.805e-16 0)
(-2.22724e-16 -5.31389e-17 0)
(-4.64745e-17 2.22773e-16 0)
(0 -0 0)
(2.22735e-16 1.21543e-16 0)
(1.04817e-16 -4.13346e-18 0)
(0 -0 0)
(0 -0 0)
(0 -0 0)
(0 -0 0)
(0 -0 0)
(0 -0 0)
(0 -0 0)
(0 -0 0)
(0 -0 0)
(0 -0 0)
(0 -0 0)
(0 -0 0)
(0 -0 0)
(0 -0 0)
(0 -0 0)
(0 -0 0)
(2.22892e-16 -0 0)
(0 -0 0)
(0 -0 0)
(0 -0 0)
(0 -0 0)
(0 -0 0)
(0 -0 0)
(0 -0 0)
(0 -0 0)
(0 -0 0)
(0 -0 0)
(0 -0 0)
(0 -0 0)
(0 -0 0)
(0 -0 0)
(0 -0 0)
(0 -0 0)
(0 -0 0)
(1.04819e-16 4.13346e-18 0)
(0 -1.21543e-16 0)
(0 -2.22767e-16 0)
(0 2.22757e-16 0)
(-2.22749e-16 -3.25388e-16 0)
(1.09445e-16 -0 0)
(0 -0 0)
(0 -0 0)
(0 -0 0)
(0 -0 0)
(0 -0 0)
(0 -0 0)
(0 -0 0)
(0 -0 0)
(0 -0 0)
(0 -0 0)
(0 -0 0)
(0 -0 0)
(0 -0 0)
(0 -0 0)
(0 -0 0)
(0 -0 0)
(-2.22892e-16 -0 0)
(0 -0 0)
(0 -0 0)
(0 -0 0)
(0 -0 0)
(0 -0 0)
(0 -0 0)
(0 -0 0)
(0 -0 0)
(0 -0 0)
(0 -0 0)
(0 -0 0)
(0 -0 0)
(0 -0 0)
(0 -0 0)
(0 -0 0)
(0 -0 0)
(0 -0 0)
(1.09435e-16 -0 0)
(0 3.25388e-16 0)
(0 -0 0)
(0 -0 0)
(0 -1.50737e-16 0)
(0 -1.82151e-16 0)
(0 3.02203e-16 0)
(0 -3.5178e-17 0)
(0 -1.97099e-16 0)
(0 1.0978e-16 0)
(0 -1.97543e-18 0)
(0 6.73814e-17 0)
(0 -1.69213e-16 0)
(0 -2.07437e-17 0)
(0 4.73924e-17 0)
(0 -1.16275e-16 0)
(0 2.3226e-16 0)
(0 1.2741e-16 0)
(0 -6.04747e-17 0)
(0 -1.74947e-16 0)
(0 1.25957e-16 0)
(0 5.69015e-17 0)
(0 -2.86232e-16 0)
(0 2.3365e-16 0)
(0 1.01518e-16 0)
(0 -1.409e-16 0)
(0 6.00272e-17 0)
(0 -8.48113e-17 0)
(0 1.45827e-16 0)
(0 -2.76812e-16 0)
(0 -8.85055e-17 0)
(0 3.42466e-16 0)
(0 -1.76453e-16 0)
(0 -1.65536e-17 0)
(0 1.30546e-16 0)
(0 6.1923e-17 0)
(0 -1.88063e-16 0)
(0 -9.79262e-17 0)
(0 1.88865e-16 0)
(0 7.51089e-17 0)
(0 3.77464e-17 0)
(0 7.99884e-17 0)
(0 2.22757e-16 0)
(0 -0 0)
(0 2.22757e-16 0)
(0 -1.7731e-16 0)
(0 -0 0)
(0 2.22802e-16 0)
(0 -2.22802e-16 0)
(0 7.01223e-17 0)
(0 -0 0)
(0 -0 0)
(0 2.22847e-16 0)
(0 -4.45694e-16 0)
(0 1.16277e-16 0)
(0 2.22892e-16 0)
(0 -0 0)
(0 -0 0)
(0 -2.22892e-16 0)
(0 2.22892e-16 0)
(0 -2.22892e-16 0)
(0 2.22892e-16 0)
(0 -0 0)
(0 -0 0)
(0 -0 0)
(0 -0 0)
(0 -0 0)
(0 -0 0)
(0 -0 0)
(0 -2.22892e-16 0)
(0 -2.22892e-16 0)
(0 1.06592e-16 0)
(0 2.22847e-16 0)
(0 -0 0)
(0 -2.22847e-16 0)
(0 -0 0)
(0 1.52757e-16 0)
(0 -0 0)
(0 -2.22802e-16 0)
(0 -0 0)
(0 1.7731e-16 0)
(0 1.20113e-16 0)
(0 -4.4551e-16 0)
(0 2.22757e-16 0)
(0 -0 0)
(0 -0 0)
(0 -0 0)
(0 -0 0)
(0 -0 0)
(0 -0 0)
(0 -0 0)
(0 -0 0)
(0 -0 0)
(0 -0 0)
(0 -0 0)
(0 -0 0)
(0 -0 0)
(0 -0 0)
(0 -0 0)
(0 -0 0)
(0 -0 0)
(0 -0 0)
(0 -0 0)
(0 -0 0)
(0 -0 0)
(0 -0 0)
(0 -0 0)
(0 -0 0)
(0 -0 0)
(0 -0 0)
(0 -0 0)
(0 -0 0)
(0 -0 0)
(0 -0 0)
(0 -0 0)
(0 -0 0)
(0 -0 0)
(0 -0 0)
(0 -0 0)
(0 -0 0)
(-1.09442e-16 -0 0)
(0 -1.01198e-16 0)
(0 -0 0)
(0 -0 0)
(0 -0 0)
(0 -0 0)
(0 -0 0)
(0 -0 0)
(0 -0 0)
(0 -0 0)
(0 -0 0)
(0 -0 0)
(0 -0 0)
(0 -0 0)
(0 -0 0)
(0 -0 0)
(0 -0 0)
(0 -0 0)
(0 -0 0)
(0 -0 0)
(0 -0 0)
(0 -0 0)
(-2.22892e-16 -0 0)
(0 -0 0)
(0 -0 0)
(0 -0 0)
(0 -0 0)
(0 -0 0)
(0 -0 0)
(0 -0 0)
(0 -0 0)
(0 -0 0)
(0 -0 0)
(0 -0 0)
(0 -0 0)
(0 -0 0)
(0 -0 0)
(0 -0 0)
(0 -0 0)
(0 -0 0)
(-1.04821e-16 -6.69512e-17 0)
(0 -1.69594e-16 0)
(0 -2.22767e-16 0)
(0 -0 0)
(0 -0 0)
(0 -0 0)
(0 -0 0)
(0 -0 0)
(0 -0 0)
(0 -0 0)
(0 -0 0)
(0 -0 0)
(0 -0 0)
(0 -0 0)
(0 -0 0)
(0 -0 0)
(0 -0 0)
(0 -0 0)
(0 -0 0)
(0 -0 0)
(0 -0 0)
(0 -0 0)
(0 -0 0)
(2.22892e-16 -0 0)
(0 -0 0)
(0 -0 0)
(0 -0 0)
(0 -0 0)
(0 -0 0)
(0 -0 0)
(0 -0 0)
(0 -0 0)
(0 -0 0)
(0 -0 0)
(0 -0 0)
(0 -0 0)
(0 -0 0)
(0 -0 0)
(0 -0 0)
(0 7.50603e-17 0)
(-4.62263e-18 -1.8186e-16 0)
(2.22724e-16 -4.52136e-17 0)
(4.64745e-17 2.22773e-16 0)
(0 -0 0)
(0 -0 0)
(0 -0 0)
(0 -0 0)
(0 -0 0)
(0 -0 0)
(0 -0 0)
(0 -0 0)
(0 -0 0)
(0 -0 0)
(0 -0 0)
(0 -0 0)
(0 -0 0)
(0 -0 0)
(0 -0 0)
(0 -0 0)
(0 -0 0)
(0 -0 0)
(0 -0 0)
(0 -0 0)
(0 -0 0)
(0 -0 0)
(0 -0 0)
(0 -0 0)
(0 -0 0)
(0 -0 0)
(0 -0 0)
(0 -0 0)
(0 -0 0)
(0 -0 0)
(0 -0 0)
(0 -0 0)
(0 -0 0)
(0 -0 0)
(0 -0 0)
(0 -0 0)
(-2.18148e-16 4.08452e-17 0)
(0 -1.68179e-16 0)
(0 -4.80116e-17 0)
(2.09455e-17 2.22786e-16 0)
(0 -0 0)
(0 -0 0)
(0 -0 0)
(0 -0 0)
(0 -0 0)
(0 -0 0)
(0 -0 0)
(0 -0 0)
(0 -0 0)
(0 -0 0)
(0 -0 0)
(0 -0 0)
(0 -0 0)
(0 -0 0)
(0 -0 0)
(0 -0 0)
(0 -0 0)
(0 -0 0)
(0 -0 0)
(0 -0 0)
(0 -0 0)
(0 -0 0)
(0 -0 0)
(0 -0 0)
(0 -0 0)
(0 -0 0)
(0 -0 0)
(0 -0 0)
(0 -0 0)
(0 -0 0)
(0 -0 0)
(0 -0 0)
(0 -0 0)
(0 -0 0)
(0 -0 0)
(0 7.50538e-17 0)
(1.2575e-16 -2.13301e-16 0)
(0 -1.1644e-16 0)
(1.04738e-16 1.88925e-16 0)
(-2.40084e-16 -0 0)
(0 -0 0)
(0 -0 0)
(0 -0 0)
(0 -0 0)
(0 -0 0)
(0 -0 0)
(0 -0 0)
(0 -0 0)
(0 -0 0)
(0 -0 0)
(0 -0 0)
(0 -0 0)
(0 -0 0)
(0 -0 0)
(0 -0 0)
(0 -0 0)
(0 -0 0)
(0 -0 0)
(0 -0 0)
(0 -0 0)
(0 -0 0)
(0 -0 0)
(0 -0 0)
(0 -0 0)
(0 -0 0)
(0 -0 0)
(0 -0 0)
(0 -0 0)
(0 -0 0)
(0 -0 0)
(0 -0 0)
(0 -0 0)
(0 -0 0)
(0 -0 0)
(0 -0 0)
(-1.13377e-16 3.65776e-17 0)
(2.14198e-16 -2.74857e-16 0)
(-1.70161e-17 1.99708e-16 0)
(-3.91387e-18 2.53152e-16 0)
(1.39579e-16 -0 0)
(0 -0 0)
(0 -0 0)
(0 -0 0)
(0 -0 0)
(0 -0 0)
(0 -0 0)
(0 -0 0)
(0 -0 0)
(0 -0 0)
(0 -0 0)
(0 -0 0)
(0 -0 0)
(0 -0 0)
(0 -0 0)
(0 -0 0)
(0 -0 0)
(0 -0 0)
(0 -0 0)
(0 -0 0)
(0 -0 0)
(0 -0 0)
(0 -0 0)
(0 -0 0)
(0 -0 0)
(0 -0 0)
(0 -0 0)
(0 -0 0)
(0 -0 0)
(0 -0 0)
(0 -0 0)
(0 -0 0)
(0 -0 0)
(0 -0 0)
(0 -0 0)
(2.22798e-16 7.80859e-17 0)
(-1.00562e-16 -2.19175e-16 0)
(0 -1.44955e-16 0)
(-7.07162e-17 1.0432e-16 0)
(4.56436e-17 -6.73787e-17 0)
(-1.12819e-16 2.23024e-16 0)
(0 -0 0)
(0 -0 0)
(0 -0 0)
(0 -0 0)
(0 -0 0)
(0 -0 0)
(0 -0 0)
(0 -0 0)
(0 -0 0)
(0 -0 0)
(0 -0 0)
(0 -0 0)
(0 -0 0)
(0 -0 0)
(0 -0 0)
(0 -0 0)
(0 -0 0)
(0 -0 0)
(0 -0 0)
(-1.2297e-17 -0 0)
(-2.10681e-16 -0 0)
(0 -0 0)
(0 -0 0)
(0 -0 0)
(0 -0 0)
(0 -0 0)
(0 -0 0)
(0 -0 0)
(0 -0 0)
(0 -0 0)
(0 -0 0)
(0 -0 0)
(0 -0 0)
(0 -0 0)
(-1.1373e-16 3.67407e-17 0)
(2.14226e-16 -4.94849e-17 0)
(-1.34904e-16 3.0626e-16 0)
(1.84765e-16 1.34266e-17 0)
(-7.78096e-17 2.16259e-16 0)
(1.32603e-16 -2.23332e-16 0)
(0 -0 0)
(0 -0 0)
(0 -0 0)
(0 -0 0)
(0 -0 0)
(0 -0 0)
(0 -0 0)
(0 -0 0)
(0 -0 0)
(0 -0 0)
(0 -0 0)
(0 -0 0)
(0 -0 0)
(0 -0 0)
(0 -0 0)
(0 -0 0)
(0 -0 0)
(0 -0 0)
(0 -0 0)
(2.22847e-16 -0 0)
(0 -0 0)
(0 -0 0)
(0 -0 0)
(0 -0 0)
(0 -0 0)
(0 -0 0)
(0 -0 0)
(0 -0 0)
(0 -0 0)
(0 -0 0)
(0 -0 0)
(0 -0 0)
(0 -0 0)
(2.22798e-16 7.80859e-17 0)
(-1.04816e-16 -1.82086e-16 0)
(0 -8.22684e-17 0)
(2.55326e-17 1.45525e-16 0)
(-3.65578e-16 -2.08001e-16 0)
(5.26071e-17 2.76731e-16 0)
(-1.21816e-16 -0 0)
(0 -0 0)
(0 -0 0)
(0 -0 0)
(0 -0 0)
(0 -0 0)
(0 -0 0)
(0 -0 0)
(0 -0 0)
(0 -0 0)
(0 -0 0)
(0 -0 0)
(0 -0 0)
(0 -0 0)
(0 -0 0)
(0 -0 0)
(0 -0 0)
(0 -0 0)
(0 -0 0)
(0 -0 0)
(-2.22847e-16 -0 0)
(2.22847e-16 -0 0)
(0 -0 0)
(0 -0 0)
(0 -0 0)
(0 -0 0)
(0 -0 0)
(0 -0 0)
(0 -0 0)
(0 -0 0)
(0 -0 0)
(0 -0 0)
(0 -0 0)
(0 -0 0)
(-2.2708e-16 3.67407e-17 0)
(-1.17573e-16 -5.87863e-17 0)
(0 -8.22651e-17 0)
(8.38493e-17 -3.95736e-17 0)
(2.08542e-16 1.87351e-16 0)
(-1.74024e-18 -5.74279e-17 0)
(4.06628e-16 -0 0)
(0 -0 0)
(-1.09428e-16 -8.62105e-17 0)
(0 6.84108e-17 0)
(0 -0 0)
(0 -0 0)
(0 -0 0)
(0 -0 0)
(0 -0 0)
(0 -0 0)
(0 -0 0)
(0 -0 0)
(0 -0 0)
(0 -0 0)
(0 -0 0)
(0 -0 0)
(0 -0 0)
(0 -0 0)
(0 -0 0)
(0 -0 0)
(-2.22847e-16 -0 0)
(0 -0 0)
(0 -0 0)
(0 -0 0)
(0 -0 0)
(0 -0 0)
(0 -0 0)
(0 -0 0)
(0 -0 0)
(0 -0 0)
(0 -0 0)
(0 -0 0)
(0 -0 0)
(0 -0 0)
(-1.1796e-16 -7.27123e-17 0)
(0 -8.22433e-17 0)
(2.01401e-16 -2.15645e-16 0)
(-1.97151e-16 1.5622e-16 0)
(-1.90202e-16 -3.30347e-17 0)
(-1.00053e-16 1.09657e-16 0)
(-7.50045e-17 -2.24165e-16 0)
(0 -0 0)
(2.22694e-16 -3.56114e-17 0)
(-1.09398e-16 -1.94166e-16 0)
(3.91527e-18 -0 0)
(0 -5.48802e-21 0)
(0 3.13578e-17 0)
(0 6.84129e-17 0)
(0 1.46515e-16 0)
(0 -7.80798e-17 0)
(0 -0 0)
(0 -0 0)
(0 -0 0)
(0 -0 0)
(0 -0 0)
(0 -0 0)
(0 -0 0)
(0 -0 0)
(0 -0 0)
(0 -0 0)
(2.22847e-16 -0 0)
(0 -0 0)
(0 -0 0)
(0 -0 0)
(0 -0 0)
(0 -0 0)
(0 -0 0)
(0 -0 0)
(0 -0 0)
(0 -0 0)
(0 -0 0)
(0 -0 0)
(0 -0 0)
(1.09424e-16 -3.13534e-17 0)
(0 -6.84115e-17 0)
(0 -8.2268e-17 0)
(1.31022e-16 -4.46861e-17 0)
(7.58565e-17 -1.71601e-16 0)
(6.84765e-17 3.00862e-16 0)
(1.35793e-16 -1.65389e-16 0)
(-2.92541e-16 2.24223e-16 0)
(2.55262e-17 2.22695e-16 0)
(0 -8.19439e-17 0)
(0 -2.22648e-16 0)
(1.30343e-16 1.84763e-16 0)
(1.70184e-17 -3.25144e-17 0)
(0 -2.08886e-16 0)
(0 1.38394e-17 0)
(0 6.84115e-17 0)
(4.2692e-18 1.36152e-16 0)
(-1.09434e-16 -1.50118e-16 0)
(0 1.50773e-16 0)
(0 -7.80871e-17 0)
(0 -0 0)
(0 -0 0)
(0 -0 0)
(0 -0 0)
(0 -0 0)
(0 -0 0)
(0 -0 0)
(3.39024e-16 -0 0)
(-1.16199e-16 -0 0)
(0 -0 0)
(0 -0 0)
(0 -0 0)
(0 -0 0)
(0 -0 0)
(0 -0 0)
(0 -0 0)
(0 -0 0)
(0 -0 0)
(0 -0 0)
(0 -0 0)
(-2.2275e-16 -6.84129e-17 0)
(0 -1.6818e-16 0)
(8.81061e-17 1.52344e-16 0)
(-9.29513e-17 -2.69396e-16 0)
(-1.40459e-17 1.44752e-16 0)
(-1.78379e-17 -1.54885e-16 0)
(-1.50721e-16 -1.0716e-16 0)
(2.4681e-16 2.24452e-16 0)
(-5.9036e-17 -0 0)
(0 1.89783e-16 0)
(0 -5.67322e-20 0)
(-1.13976e-16 -1.5844e-16 0)
(5.10965e-17 -1.76337e-16 0)
(-1.34551e-16 1.53762e-16 0)
(1.21815e-16 4.33055e-17 0)
(0 1.05459e-16 0)
(-2.22723e-16 -1.7751e-16 0)
(-1.09388e-16 3.4176e-16 0)
(2.18852e-16 -4.81929e-16 0)
(-1.09434e-16 1.07965e-16 0)
(0 1.50773e-16 0)
(0 -7.80871e-17 0)
(0 -0 0)
(0 -0 0)
(0 -0 0)
(0 -0 0)
(0 -0 0)
(-4.45604e-16 -0 0)
(2.22802e-16 -0 0)
(0 -0 0)
(0 -0 0)
(0 -0 0)
(0 -0 0)
(0 -0 0)
(0 -0 0)
(0 -0 0)
(0 -0 0)
(0 -0 0)
(0 -0 0)
(0 -0 0)
(0 -6.84122e-17 0)
(2.22725e-16 -4.52139e-17 0)
(1.5549e-16 1.17263e-16 0)
(1.51212e-16 -2.61989e-17 0)
(-4.65867e-16 1.24311e-16 0)
(1.20776e-16 -1.07042e-16 0)
(9.1509e-17 1.32113e-16 0)
(-2.22572e-16 -2.24767e-16 0)
(-5.43545e-17 2.22636e-16 0)
(2.11887e-16 -2.40768e-16 0)
(0 2.51623e-16 0)
(-4.18366e-17 -2.23853e-16 0)
(1.22167e-16 3.40002e-17 0)
(-2.12526e-17 7.57053e-17 0)
(4.64756e-17 7.96881e-17 0)
(-8.1544e-18 -1.16597e-16 0)
(1.21808e-16 1.36487e-16 0)
(0 1.95468e-17 0)
(0 1.68166e-16 0)
(-2.18468e-16 -8.62994e-17 0)
(3.27946e-16 -4.09249e-16 0)
(-1.0927e-16 1.14002e-16 0)
(0 6.66261e-17 0)
(0 -0 0)
(0 -0 0)
(0 -0 0)
(0 -0 0)
(0 -0 0)
(0 -0 0)
(0 -0 0)
(0 -0 0)
(0 -0 0)
(0 -0 0)
(0 -0 0)
(0 -0 0)
(0 -0 0)
(0 -0 0)
(0 -0 0)
(0 -0 0)
(0 -0 0)
(0 -6.27086e-17 0)
(-3.37106e-17 -1.03198e-16 0)
(-9.68116e-17 -1.83513e-16 0)
(-2.43573e-16 1.38583e-16 0)
(2.1475e-16 -4.21605e-17 0)
(-6.27903e-17 5.30821e-17 0)
(6.16942e-17 2.47649e-16 0)
(-7.47169e-17 -2.24864e-16 0)
(2.39525e-16 -0 0)
(9.39772e-17 1.75459e-16 0)
(-1.82265e-16 -3.91718e-16 0)
(-2.73876e-17 1.5737e-16 0)
(2.31883e-16 2.73925e-17 0)
(-1.6343e-16 -5.0284e-17 0)
(2.93416e-16 -1.4823e-16 0)
(-9.2158e-17 9.8896e-17 0)
(1.00885e-16 -2.35146e-16 0)
(2.35376e-16 2.87806e-16 0)
(-2.35439e-16 -3.03967e-16 0)
(-1.009e-16 1.63581e-16 0)
(0 -9.77063e-17 0)
(4.0784e-18 -5.49225e-17 0)
(1.05182e-16 7.11854e-17 0)
(-1.13507e-16 -1.44032e-16 0)
(0 6.66296e-17 0)
(0 -0 0)
(0 -0 0)
(0 -0 0)
(0 -0 0)
(0 -0 0)
(0 -0 0)
(0 -0 0)
(0 -0 0)
(0 -0 0)
(0 -0 0)
(0 -0 0)
(0 -0 0)
(0 -0 0)
(0 -0 0)
(0 -0 0)
(1.00927e-16 -6.66139e-17 0)
(-2.60631e-16 -8.22288e-17 0)
(4.25473e-18 5.27755e-17 0)
(3.0481e-16 1.58653e-17 0)
(-1.62587e-16 4.04293e-17 0)
(-7.13667e-17 -4.48218e-17 0)
(3.04544e-16 1.17719e-16 0)
(-3.13187e-17 2.24858e-16 0)
(-1.05224e-16 2.23547e-16 0)
(-1.91805e-17 -2.66729e-17 0)
(1.80313e-16 1.35017e-17 0)
(-1.7363e-16 2.08661e-16 0)
(-4.05948e-16 4.10625e-17 0)
(1.49685e-16 -2.11908e-16 0)
(-3.91999e-16 1.94694e-16 0)
(-3.41296e-17 -7.17373e-17 0)
(-7.99787e-17 2.68752e-16 0)
(6.30298e-17 -7.41144e-17 0)
(2.48863e-16 -2.87768e-16 0)
(2.0928e-17 2.26947e-16 0)
(2.01953e-16 -1.18829e-16 0)
(8.34496e-18 -9.44041e-17 0)
(0 -1.95037e-16 0)
(0 5.08982e-17 0)
(1.13418e-16 3.12218e-16 0)
(-4.13346e-18 6.73166e-19 0)
(0 -7.80861e-17 0)
(3.07845e-17 -0 0)
(-3.07845e-17 -0 0)
(0 -0 0)
(0 -0 0)
(0 -0 0)
(0 -0 0)
(0 -0 0)
(0 -0 0)
(0 -0 0)
(0 -0 0)
(0 -0 0)
(0 -0 0)
(0 -3.13504e-17 0)
(1.05157e-16 3.99098e-17 0)
(0 -2.3186e-17 0)
(-6.42401e-21 -6.11998e-17 0)
(-2.30365e-16 1.26048e-16 0)
(2.175e-19 -1.48335e-16 0)
(8.36236e-17 -6.09755e-18 0)
(-3.9789e-16 -1.06889e-16 0)
(1.89394e-16 2.24988e-16 0)
(1.76844e-16 -0 0)
(8.1658e-17 3.1768e-16 0)
(-1.32194e-16 -1.76694e-16 0)
(1.30799e-17 -2.1244e-16 0)
(7.93523e-17 4.6614e-16 0)
(-5.45021e-17 -2.17681e-16 0)
(4.3561e-16 -9.10424e-17 0)
(5.74511e-17 2.6767e-16 0)
(9.39914e-17 -4.21361e-17 0)
(-4.82482e-16 -1.68368e-16 0)
(-3.41294e-17 1.63039e-17 0)
(3.10586e-16 2.43427e-17 0)
(3.4124e-17 -2.33435e-16 0)
(-2.18742e-16 2.08359e-16 0)
(1.13464e-16 7.12208e-17 0)
(0 -1.09127e-16 0)
(-2.22724e-16 5.08959e-17 0)
(0 8.22478e-17 0)
(0 1.36825e-16 0)
(-2.22756e-16 3.13557e-17 0)
(0 -0 0)
(0 -0 0)
(0 -0 0)
(0 -0 0)
(0 -0 0)
(0 -0 0)
(0 -0 0)
(0 -0 0)
(0 -0 0)
(0 -0 0)
(0 -0 0)
(-4.2412e-18 -1.72122e-16 0)
(0 9.44111e-17 0)
(0 2.49396e-17 0)
(-3.57171e-19 -9.50073e-17 0)
(1.69949e-17 -1.34087e-16 0)
(-5.82242e-17 -1.662e-16 0)
(1.24564e-16 -4.31561e-17 0)
(1.46504e-16 -1.22269e-16 0)
(-1.80384e-16 2.2526e-16 0)
(2.26042e-16 -0 0)
(0 4.48761e-17 0)
(-2.24988e-16 -3.55938e-17 0)
(-2.24858e-16 -3.12089e-17 0)
(2.24864e-16 -7.47443e-17 0)
(2.24767e-16 2.41449e-18 0)
(-2.24452e-16 2.27959e-17 0)
(-2.24223e-16 -2.92431e-16 0)
(2.24165e-16 1.49243e-16 0)
(4.47728e-16 4.06628e-16 0)
(-2.23548e-16 -3.45365e-16 0)
(-2.23332e-16 1.3304e-16 0)
(-2.23024e-16 -1.13037e-16 0)
(2.22804e-16 1.39579e-16 0)
(0 -1.73509e-17 0)
(0 -2.01849e-16 0)
(2.22773e-16 4.64745e-17 0)
(2.22767e-16 2.22767e-16 0)
(0 -2.22757e-16 0)
(0 -0 0)
(0 -0 0)
(2.22757e-16 -0 0)
(0 -0 0)
(0 -0 0)
(0 -0 0)
(0 -0 0)
(0 -0 0)
(0 -0 0)
(0 -0 0)
(0 -0 0)
(0 -0 0)
(0 -2.22708e-16 0)
(0 2.227e-16 0)
(2.22695e-16 1.97169e-16 0)
(0 -1.63627e-16 0)
(0 -1.68282e-16 0)
(-2.22976e-16 -1.6549e-17 0)
(2.23547e-16 1.04787e-16 0)
(2.24119e-16 4.72752e-17 0)
(0 -4.52084e-16 0)
(2.24076e-16 -0 0)
(-2.22577e-16 3.86901e-17 0)
(0 -2.8467e-16 0)
(-2.22525e-16 1.23432e-16 0)
(0 -1.28799e-16 0)
(0 -2.89276e-16 0)
(0 1.58074e-16 0)
(-2.22609e-16 3.07609e-16 0)
(-2.2265e-16 -2.96632e-16 0)
(0 9.44435e-17 0)
(0 -0 0)
(0 -0 0)
(0 -0 0)
(0 -0 0)
(0 -0 0)
(0 -0 0)
(0 -0 0)
(0 -0 0)
(0 -0 0)
(-2.22746e-16 -0 0)
(2.22746e-16 -0 0)
(0 -0 0)
(0 -0 0)
(0 -0 0)
(0 -0 0)
(0 -0 0)
(0 -0 0)
(0 -0 0)
(0 -0 0)
(-2.22722e-16 -0 0)
(0 -9.44435e-17 0)
(0 2.96577e-16 0)
(2.22609e-16 -3.07609e-16 0)
(2.22651e-16 -1.58182e-16 0)
(0 2.89167e-16 0)
(0 1.2869e-16 0)
(0 -1.23432e-16 0)
(2.22521e-16 2.84235e-16 0)
(-2.22577e-16 -3.91248e-17 0)
(0 2.24076e-16 0)
(-8.81196e-17 2.23353e-16 0)
(3.23322e-16 1.5483e-16 0)
(-1.4631e-16 9.28402e-17 0)
(1.34811e-17 -1.3671e-16 0)
(1.84806e-16 1.1792e-16 0)
(-2.64494e-16 2.23761e-17 0)
(1.25371e-16 9.77764e-18 0)
(3.06888e-16 -2.71679e-18 0)
(-1.84699e-16 1.98804e-16 0)
(2.35457e-16 -9.23506e-17 0)
(-2.22722e-16 -0 0)
(0 -0 0)
(0 -0 0)
(0 -0 0)
(0 -0 0)
(0 -0 0)
(0 -0 0)
(0 -0 0)
(0 -0 0)
(1.63495e-16 -0 0)
(-1.63441e-16 -0 0)
(0 -0 0)
(0 -0 0)
(0 -0 0)
(0 -0 0)
(0 -0 0)
(0 -0 0)
(0 -0 0)
(0 -0 0)
(0 -0 0)
(2.35457e-16 9.23506e-17 0)
(3.794e-17 -1.98804e-16 0)
(8.43834e-17 2.66245e-18 0)
(-9.70159e-17 -9.77764e-18 0)
(-2.64549e-16 -2.22675e-17 0)
(-3.75692e-17 -1.18028e-16 0)
(1.35082e-17 1.3671e-16 0)
(-1.46419e-16 -9.28402e-17 0)
(3.2343e-16 6.72232e-17 0)
(-8.79015e-17 -2.23353e-16 0)
(1.12966e-16 2.23315e-16 0)
(-1.13201e-16 -1.56574e-16 0)
(3.2408e-16 -4.33841e-18 0)
(-4.60169e-17 3.02583e-16 0)
(-1.33324e-17 -2.47698e-16 0)
(2.22491e-16 -1.66961e-16 0)
(-5.8834e-17 4.97586e-17 0)
(-6.7527e-17 3.07608e-17 0)
(2.35415e-16 2.11604e-16 0)
(4.24111e-18 -5.88047e-17 0)
(1.13325e-16 -0 0)
(0 -0 0)
(0 -0 0)
(0 -0 0)
(0 -0 0)
(0 -0 0)
(0 -0 0)
(0 -0 0)
(0 -0 0)
(0 -0 0)
(0 -0 0)
(0 -0 0)
(0 -0 0)
(0 -0 0)
(0 -0 0)
(0 -0 0)
(0 -0 0)
(0 -0 0)
(0 -0 0)
(1.13325e-16 -0 0)
(4.24111e-18 5.88047e-17 0)
(1.27479e-17 -2.11577e-16 0)
(-6.74998e-17 -3.08151e-17 0)
(-5.88355e-17 -4.97586e-17 0)
(1.26196e-20 1.66961e-16 0)
(-1.33245e-17 2.47589e-16 0)
(-4.61254e-17 -3.028e-16 0)
(3.24296e-16 4.33841e-18 0)
(-1.13418e-16 -6.59258e-17 0)
(1.12966e-16 -2.23315e-16 0)
(1.68451e-17 -4.46586e-16 0)
(-4.60915e-17 -1.42721e-16 0)
(-1.39418e-16 1.52763e-16 0)
(2.22357e-16 7.19838e-17 0)
(-4.70087e-16 -4.12738e-18 0)
(7.96283e-17 1.11892e-16 0)
(-8.33849e-17 -6.55128e-17 0)
(-4.19859e-17 -2.33137e-16 0)
(-9.66154e-17 1.72462e-16 0)
(-1.09412e-16 -2.71899e-20 0)
(0 -0 0)
(0 -0 0)
(0 -0 0)
(0 -0 0)
(0 -0 0)
(0 -0 0)
(0 -0 0)
(0 -0 0)
(0 -0 0)
(9.13745e-17 -0 0)
(1.31405e-16 -0 0)
(0 -0 0)
(0 -0 0)
(0 -0 0)
(0 -0 0)
(0 -0 0)
(0 -0 0)
(0 -0 0)
(0 -0 0)
(0 -0 0)
(-1.09412e-16 -0 0)
(-9.66154e-17 -1.72462e-16 0)
(-4.19859e-17 2.33164e-16 0)
(3.61624e-16 6.55128e-17 0)
(7.95739e-17 -1.11675e-16 0)
(-2.47643e-16 4.07307e-18 0)
(2.22357e-16 -7.18752e-17 0)
(-1.39635e-16 6.94379e-17 0)
(-2.68253e-16 -7.98196e-17 0)
(1.67906e-17 4.46586e-16 0)
(-5.12432e-18 4.46579e-16 0)
(-3.00225e-16 1.30141e-17 0)
(3.89652e-16 -5.20847e-17 0)
(-2.35748e-16 6.77671e-17 0)
(3.44963e-16 -2.0425e-16 0)
(-6.07801e-17 2.32474e-16 0)
(2.18598e-16 -2.20548e-16 0)
(-1.46728e-16 -8.97384e-17 0)
(1.30341e-16 1.76425e-16 0)
(-1.09425e-16 -0 0)
(0 -0 0)
(0 -0 0)
(0 -0 0)
(0 -0 0)
(0 -0 0)
(0 -0 0)
(0 -0 0)
(0 -0 0)
(0 -0 0)
(0 -0 0)
(-4.45604e-16 -0 0)
(0 -0 0)
(0 -0 0)
(0 -0 0)
(0 -0 0)
(0 -0 0)
(0 -0 0)
(0 -0 0)
(0 -0 0)
(0 -0 0)
(-1.09425e-16 -0 0)
(1.30341e-16 -1.76425e-16 0)
(7.58781e-17 8.97384e-17 0)
(-2.26393e-16 2.20439e-16 0)
(1.61646e-16 -2.32257e-16 0)
(3.44963e-16 2.04278e-16 0)
(-1.33258e-17 -6.75499e-17 0)
(3.89699e-16 -1.70143e-16 0)
(-7.81407e-17 -1.30141e-17 0)
(2.18056e-16 -2.23289e-16 0)
(-6.38808e-17 -0 0)
(9.52734e-17 1.17126e-17 0)
(1.28631e-16 -2.73429e-17 0)
(1.86358e-16 -2.24802e-17 0)
(-1.97307e-16 -1.11637e-16 0)
(2.94396e-17 2.05534e-16 0)
(-5.51966e-17 -1.02353e-16 0)
(-4.19655e-17 9.19217e-17 0)
(1.70216e-17 5.45726e-17 0)
(-1.09431e-16 -0 0)
(0 -0 0)
(0 -0 0)
(0 -0 0)
(0 -0 0)
(0 -0 0)
(0 -0 0)
(0 -0 0)
(0 -0 0)
(0 -0 0)
(-6.65862e-17 -0 0)
(2.89465e-16 -0 0)
(0 -0 0)
(0 -0 0)
(0 -0 0)
(0 -0 0)
(0 -0 0)
(0 -0 0)
(0 -0 0)
(0 -0 0)
(0 -0 0)
(-1.09458e-16 -0 0)
(1.70216e-17 -5.45454e-17 0)
(-2.64676e-16 -9.19761e-17 0)
(1.67328e-16 1.02461e-16 0)
(2.93853e-17 -2.05534e-16 0)
(-1.97307e-16 1.11583e-16 0)
(-3.61095e-17 2.24802e-17 0)
(1.28685e-16 -1.95307e-16 0)
(9.52462e-17 -2.33818e-16 0)
(-6.39898e-17 -0 0)
(-9.56771e-17 -0 0)
(-1.08022e-16 -2.02161e-16 0)
(-2.48093e-16 2.17054e-18 0)
(4.44811e-16 -4.36546e-17 0)
(1.17438e-16 -9.06043e-17 0)
(-2.26407e-16 -4.64981e-17 0)
(6.29271e-17 -1.33136e-16 0)
(2.64551e-16 1.416e-16 0)
(1.27533e-17 1.22965e-16 0)
(0 -0 0)
(0 -0 0)
(0 -0 0)
(0 -0 0)
(0 -0 0)
(0 -0 0)
(0 -0 0)
(0 -0 0)
(0 -0 0)
(0 -0 0)
(2.22824e-16 -0 0)
(-2.22824e-16 -0 0)
(0 -0 0)
(0 -0 0)
(0 -0 0)
(0 -0 0)
(0 -0 0)
(0 -0 0)
(0 -0 0)
(0 -0 0)
(0 -0 0)
(0 -0 0)
(1.27533e-17 -1.22965e-16 0)
(2.64551e-16 -1.416e-16 0)
(-1.59654e-16 1.33136e-16 0)
(-3.91106e-18 4.63895e-17 0)
(-1.05053e-16 9.06043e-17 0)
(4.44786e-16 4.36546e-17 0)
(-2.48093e-16 -2.17054e-18 0)
(-1.07805e-16 2.02161e-16 0)
(-9.56771e-17 -0 0)
(2.4173e-16 -0 0)
(-3.42839e-17 -6.6832e-17 0)
(2.2236e-16 9.55455e-18 0)
(-5.66606e-16 4.008e-17 0)
(-1.25693e-16 -2.20208e-16 0)
(1.55587e-16 2.88249e-16 0)
(8.82775e-17 -4.26982e-16 0)
(-3.19382e-16 1.2262e-16 0)
(2.22757e-16 -3.13559e-17 0)
(0 -0 0)
(0 -0 0)
(0 -0 0)
(0 -0 0)
(0 -0 0)
(0 -0 0)
(0 -0 0)
(0 -0 0)
(0 -0 0)
(0 -0 0)
(-1.77781e-16 -0 0)
(1.77781e-16 -0 0)
(0 -0 0)
(0 -0 0)
(0 -0 0)
(0 -0 0)
(0 -0 0)
(0 -0 0)
(0 -0 0)
(0 -0 0)
(0 -0 0)
(0 -0 0)
(2.22757e-16 3.13559e-17 0)